<!--Convex Hulls Aggregates Visualization-->
<VTKFile type="UnstructuredGrid" byte_order="LittleEndian">
  <UnstructuredGrid>
    <Piece NumberOfPoints="208" NumberOfCells="276">
      <PointData Scalars="Node Aggregate Processor">
        <DataArray type="Int32" Name="Node" format="ascii">
          5 6 7 9 15 16 17 18 19 25 
          27 28 35 36 37 38 39 45 46 47 
          49 105 106 107 108 109 115 116 118 119 
          125 126 128 129 135 136 137 138 139 145 
          146 147 148 149 205 207 208 215 216 217 
          218 219 226 227 229 235 236 237 238 239 
          245 247 248 305 306 307 308 309 315 316 
          317 318 319 325 326 328 329 335 336 338 
          339 345 346 347 348 349 406 407 409 415 
          416 417 418 419 425 427 428 435 436 437 
          438 439 446 447 449 505 506 507 508 509 
          515 516 518 519 525 526 528 529 535 536 
          537 538 539 545 546 547 548 549 605 607 
          608 615 616 617 618 619 626 627 629 635 
          636 637 638 645 647 648 649 705 706 707 
          708 709 715 716 717 718 719 725 726 728 
          729 735 736 738 739 745 746 747 748 749 
          806 807 809 816 817 818 825 827 828 836 
          838 839 846 847 849 905 906 907 908 909 
          915 916 918 919 925 926 927 928 935 936 
          937 938 939 945 946 947 948 949 
        </DataArray>
        <DataArray type="Int32" Name="Aggregate" format="ascii">
          35 35 36 36 35 37 41 36 38 37 
          37 38 39 37 37 40 38 39 39 40 
          40 35 42 41 36 43 35 41 41 38 
          44 37 45 38 39 46 41 40 47 39 
          46 40 40 47 42 42 43 44 42 41 
          45 43 44 45 45 44 46 48 45 47 
          46 46 47 49 42 42 50 43 44 51 
          48 45 43 44 51 45 52 53 48 48 
          52 53 46 48 54 47 49 50 50 49 
          51 55 50 52 51 51 52 53 51 48 
          54 52 53 54 54 49 56 55 50 57 
          49 55 55 57 58 51 59 52 58 60 
          55 54 61 53 60 54 54 61 56 56 
          57 58 56 55 59 57 58 59 59 58 
          60 62 59 60 60 61 61 63 56 56 
          64 57 63 65 62 59 66 58 65 59 
          66 67 62 62 61 67 60 62 68 61 
          63 64 64 65 69 64 65 65 66 65 
          68 66 67 68 68 63 69 69 64 64 
          63 69 69 66 65 65 69 69 67 65 
          62 68 66 67 67 68 68 68 
        </DataArray>
        <DataArray type="Int32" Name="Processor" format="ascii">
          1 1 1 1 1 1 1 1 1 1 1 1 1 1 1 1 1 1 1 1 
          1 1 1 1 1 1 1 1 1 1 1 1 1 1 1 1 1 1 1 1 
          1 1 1 1 1 1 1 1 1 1 1 1 1 1 1 1 1 1 1 1 
          1 1 1 1 1 1 1 1 1 1 1 1 1 1 1 1 1 1 1 1 
          1 1 1 1 1 1 1 1 1 1 1 1 1 1 1 1 1 1 1 1 
          1 1 1 1 1 1 1 1 1 1 1 1 1 1 1 1 1 1 1 1 
          1 1 1 1 1 1 1 1 1 1 1 1 1 1 1 1 1 1 1 1 
          1 1 1 1 1 1 1 1 1 1 1 1 1 1 1 1 1 1 1 1 
          1 1 1 1 1 1 1 1 1 1 1 1 1 1 1 1 1 1 1 1 
          1 1 1 1 1 1 1 1 1 1 1 1 1 1 1 1 1 1 1 1 
          1 1 1 1 1 1 1 1 
        </DataArray>
      </PointData>
      <Points>
        <DataArray type="Float64" NumberOfComponents="3" format="ascii">
          0.555556 0 0 0.666667 0 0 0.777778 0 0 
          1 0 0 0.555556 0.111111 0 0.666667 0.111111 0 
          0.777778 0.111111 0 0.888889 0.111111 0 1 0.111111 0 
          0.555556 0.222222 0 0.777778 0.222222 0 0.888889 0.222222 0 
          0.555556 0.333333 0 0.666667 0.333333 0 0.777778 0.333333 0 
          0.888889 0.333333 0 1 0.333333 0 0.555556 0.444444 0 
          0.666667 0.444444 0 0.777778 0.444444 0 1 0.444444 0 
          0.555556 0 0.111111 0.666667 0 0.111111 0.777778 0 0.111111 
          0.888889 0 0.111111 1 0 0.111111 0.555556 0.111111 0.111111 
          0.666667 0.111111 0.111111 0.888889 0.111111 0.111111 1 0.111111 0.111111 
          0.555556 0.222222 0.111111 0.666667 0.222222 0.111111 0.888889 0.222222 0.111111 
          1 0.222222 0.111111 0.555556 0.333333 0.111111 0.666667 0.333333 0.111111 
          0.777778 0.333333 0.111111 0.888889 0.333333 0.111111 1 0.333333 0.111111 
          0.555556 0.444444 0.111111 0.666667 0.444444 0.111111 0.777778 0.444444 0.111111 
          0.888889 0.444444 0.111111 1 0.444444 0.111111 0.555556 0 0.222222 
          0.777778 0 0.222222 0.888889 0 0.222222 0.555556 0.111111 0.222222 
          0.666667 0.111111 0.222222 0.777778 0.111111 0.222222 0.888889 0.111111 0.222222 
          1 0.111111 0.222222 0.666667 0.222222 0.222222 0.777778 0.222222 0.222222 
          1 0.222222 0.222222 0.555556 0.333333 0.222222 0.666667 0.333333 0.222222 
          0.777778 0.333333 0.222222 0.888889 0.333333 0.222222 1 0.333333 0.222222 
          0.555556 0.444444 0.222222 0.777778 0.444444 0.222222 0.888889 0.444444 0.222222 
          0.555556 0 0.333333 0.666667 0 0.333333 0.777778 0 0.333333 
          0.888889 0 0.333333 1 0 0.333333 0.555556 0.111111 0.333333 
          0.666667 0.111111 0.333333 0.777778 0.111111 0.333333 0.888889 0.111111 0.333333 
          1 0.111111 0.333333 0.555556 0.222222 0.333333 0.666667 0.222222 0.333333 
          0.888889 0.222222 0.333333 1 0.222222 0.333333 0.555556 0.333333 0.333333 
          0.666667 0.333333 0.333333 0.888889 0.333333 0.333333 1 0.333333 0.333333 
          0.555556 0.444444 0.333333 0.666667 0.444444 0.333333 0.777778 0.444444 0.333333 
          0.888889 0.444444 0.333333 1 0.444444 0.333333 0.666667 0 0.444444 
          0.777778 0 0.444444 1 0 0.444444 0.555556 0.111111 0.444444 
          0.666667 0.111111 0.444444 0.777778 0.111111 0.444444 0.888889 0.111111 0.444444 
          1 0.111111 0.444444 0.555556 0.222222 0.444444 0.777778 0.222222 0.444444 
          0.888889 0.222222 0.444444 0.555556 0.333333 0.444444 0.666667 0.333333 0.444444 
          0.777778 0.333333 0.444444 0.888889 0.333333 0.444444 1 0.333333 0.444444 
          0.666667 0.444444 0.444444 0.777778 0.444444 0.444444 1 0.444444 0.444444 
          0.555556 0 0.555556 0.666667 0 0.555556 0.777778 0 0.555556 
          0.888889 0 0.555556 1 0 0.555556 0.555556 0.111111 0.555556 
          0.666667 0.111111 0.555556 0.888889 0.111111 0.555556 1 0.111111 0.555556 
          0.555556 0.222222 0.555556 0.666667 0.222222 0.555556 0.888889 0.222222 0.555556 
          1 0.222222 0.555556 0.555556 0.333333 0.555556 0.666667 0.333333 0.555556 
          0.777778 0.333333 0.555556 0.888889 0.333333 0.555556 1 0.333333 0.555556 
          0.555556 0.444444 0.555556 0.666667 0.444444 0.555556 0.777778 0.444444 0.555556 
          0.888889 0.444444 0.555556 1 0.444444 0.555556 0.555556 0 0.666667 
          0.777778 0 0.666667 0.888889 0 0.666667 0.555556 0.111111 0.666667 
          0.666667 0.111111 0.666667 0.777778 0.111111 0.666667 0.888889 0.111111 0.666667 
          1 0.111111 0.666667 0.666667 0.222222 0.666667 0.777778 0.222222 0.666667 
          1 0.222222 0.666667 0.555556 0.333333 0.666667 0.666667 0.333333 0.666667 
          0.777778 0.333333 0.666667 0.888889 0.333333 0.666667 0.555556 0.444444 0.666667 
          0.777778 0.444444 0.666667 0.888889 0.444444 0.666667 1 0.444444 0.666667 
          0.555556 0 0.777778 0.666667 0 0.777778 0.777778 0 0.777778 
          0.888889 0 0.777778 1 0 0.777778 0.555556 0.111111 0.777778 
          0.666667 0.111111 0.777778 0.777778 0.111111 0.777778 0.888889 0.111111 0.777778 
          1 0.111111 0.777778 0.555556 0.222222 0.777778 0.666667 0.222222 0.777778 
          0.888889 0.222222 0.777778 1 0.222222 0.777778 0.555556 0.333333 0.777778 
          0.666667 0.333333 0.777778 0.888889 0.333333 0.777778 1 0.333333 0.777778 
          0.555556 0.444444 0.777778 0.666667 0.444444 0.777778 0.777778 0.444444 0.777778 
          0.888889 0.444444 0.777778 1 0.444444 0.777778 0.666667 0 0.888889 
          0.777778 0 0.888889 1 0 0.888889 0.666667 0.111111 0.888889 
          0.777778 0.111111 0.888889 0.888889 0.111111 0.888889 0.555556 0.222222 0.888889 
          0.777778 0.222222 0.888889 0.888889 0.222222 0.888889 0.666667 0.333333 0.888889 
          0.888889 0.333333 0.888889 1 0.333333 0.888889 0.666667 0.444444 0.888889 
          0.777778 0.444444 0.888889 1 0.444444 0.888889 0.555556 0 1 
          0.666667 0 1 0.777778 0 1 0.888889 0 1 
          1 0 1 0.555556 0.111111 1 0.666667 0.111111 1 
          0.888889 0.111111 1 1 0.111111 1 0.555556 0.222222 1 
          0.666667 0.222222 1 0.777778 0.222222 1 0.888889 0.222222 1 
          0.555556 0.333333 1 0.666667 0.333333 1 0.777778 0.333333 1 
          0.888889 0.333333 1 1 0.333333 1 0.555556 0.444444 1 
          0.666667 0.444444 1 0.777778 0.444444 1 0.888889 0.444444 1 
          1 0.444444 1 
        </DataArray>
      </Points>
      <Cells>
        <DataArray type="Int32" Name="connectivity" format="ascii">
          26 1 4 0 26 4 1 0 4 0 
          1 21 26 0 21 1 26 21 3 2 
          7 24 3 7 2 24 7 2 3 24 
          14 5 9 5 31 9 14 9 13 9 
          31 13 31 14 13 5 14 10 31 5 
          10 14 31 10 16 8 11 8 29 11 
          8 16 29 16 11 33 11 29 33 29 
          16 33 17 39 18 12 17 18 12 39 
          17 12 18 34 39 12 34 18 39 34 
          15 20 37 19 15 37 19 20 15 20 
          19 42 37 20 42 19 37 41 42 19 
          41 37 42 41 6 36 28 23 6 28 
          23 28 49 28 36 49 6 23 27 36 
          6 27 23 49 27 49 36 27 22 65 
          44 48 22 44 48 44 64 44 65 64 
          65 48 64 22 48 45 65 22 45 48 
          65 45 25 67 46 67 72 46 25 72 
          67 25 46 51 72 25 51 46 72 51 
          68 55 30 55 52 30 30 52 47 68 
          30 47 52 68 47 52 55 73 68 52 
          73 55 68 73 53 58 32 32 58 54 
          53 32 50 32 54 50 71 53 50 54 
          71 50 58 53 75 53 71 75 54 58 
          75 71 54 75 82 40 60 40 35 60 
          60 35 56 82 60 56 35 40 61 56 
          35 61 40 82 61 82 56 61 43 38 
          62 85 43 62 85 38 43 62 38 59 
          38 85 59 85 62 59 57 83 79 70 
          57 79 70 79 99 79 83 99 57 70 
          78 83 57 78 70 99 78 99 83 78 
          110 105 86 105 63 86 110 63 105 86 
          63 89 63 110 89 110 86 89 87 88 
          108 88 92 108 92 87 108 88 87 66 
          87 92 66 92 88 66 94 115 98 98 
          115 95 69 94 74 95 69 74 94 98 
          74 98 95 74 94 69 90 69 95 90 
          115 94 90 95 115 90 80 76 96 117 
          76 80 96 76 93 76 117 93 117 96 
          93 80 96 101 117 80 101 96 117 101 
          81 123 102 77 81 102 77 123 81 77 
          102 97 123 77 97 102 123 97 104 84 
          125 125 84 103 121 125 103 103 84 100 
          84 104 100 121 103 100 104 121 100 121 
          104 126 104 125 126 125 121 126 120 112 
          91 112 107 91 91 107 111 120 91 111 
          111 107 133 107 112 133 120 111 133 112 
          120 133 149 128 106 128 132 106 106 132 
          129 149 106 129 132 149 129 132 128 148 
          128 149 148 149 132 148 109 151 130 113 
          109 130 151 109 113 113 130 135 151 113 
          135 130 151 135 131 139 114 136 131 114 
          136 114 118 114 139 118 139 136 118 131 
          136 157 139 131 157 136 139 157 137 142 
          116 116 142 138 137 116 134 116 138 134 
          155 137 134 138 155 134 142 137 159 137 
          155 159 138 142 159 155 138 159 166 124 
          143 124 119 143 143 119 140 166 143 140 
          119 124 144 140 119 144 124 166 144 166 
          140 144 122 164 145 164 169 145 122 169 
          164 169 122 146 145 169 146 122 145 127 
          146 122 127 145 146 127 163 200 154 141 
          163 154 141 154 162 154 200 162 141 162 
          167 163 141 167 162 200 167 200 163 167 
          152 190 170 147 152 170 147 190 152 147 
          170 185 190 147 185 170 190 185 189 171 
          150 171 175 150 150 175 172 189 150 172 
          175 189 172 175 171 188 171 189 188 189 
          175 188 199 179 194 199 194 195 194 153 
          173 195 194 173 173 153 177 195 173 177 
          179 199 177 199 195 177 153 194 176 194 
          179 176 153 176 158 177 153 158 176 179 
          158 179 177 158 156 202 193 178 156 193 
          202 178 193 202 156 181 178 202 181 156 
          178 160 181 156 160 178 181 160 161 204 
          198 165 161 198 165 198 203 204 165 203 
          198 204 203 161 165 182 204 161 182 165 
          204 182 183 207 168 180 183 168 180 168 
          184 168 207 184 207 180 184 207 183 206 
          183 180 205 206 183 205 205 180 201 180 
          207 201 206 205 201 207 206 201 196 197 
          174 186 197 196 174 197 192 197 186 192 
          186 174 187 174 192 187 192 186 187 174 
          186 191 196 174 191 186 196 191 
        </DataArray>
        <DataArray type="Int32" Name="offsets" format="ascii">
          3 6 9 12 15 18 21 24 27 30 
          33 36 39 42 45 48 51 54 57 60 
          63 66 69 72 75 78 81 84 87 90 
          93 96 99 102 105 108 111 114 117 120 
          123 126 129 132 135 138 141 144 147 150 
          153 156 159 162 165 168 171 174 177 180 
          183 186 189 192 195 198 201 204 207 210 
          213 216 219 222 225 228 231 234 237 240 
          243 246 249 252 255 258 261 264 267 270 
          273 276 279 282 285 288 291 294 297 300 
          303 306 309 312 315 318 321 324 327 330 
          333 336 339 342 345 348 351 354 357 360 
          363 366 369 372 375 378 381 384 387 390 
          393 396 399 402 405 408 411 414 417 420 
          423 426 429 432 435 438 441 444 447 450 
          453 456 459 462 465 468 471 474 477 480 
          483 486 489 492 495 498 501 504 507 510 
          513 516 519 522 525 528 531 534 537 540 
          543 546 549 552 555 558 561 564 567 570 
          573 576 579 582 585 588 591 594 597 600 
          603 606 609 612 615 618 621 624 627 630 
          633 636 639 642 645 648 651 654 657 660 
          663 666 669 672 675 678 681 684 687 690 
          693 696 699 702 705 708 711 714 717 720 
          723 726 729 732 735 738 741 744 747 750 
          753 756 759 762 765 768 771 774 777 780 
          783 786 789 792 795 798 801 804 807 810 
          813 816 819 822 825 828 
        </DataArray>
        <DataArray type="Int32" Name="types" format="ascii">
          5 5 5 5 5 5 5 5 5 5 5 5 5 5 5 5 5 5 5 5 5 5 5 5 5 5 5 5 5 5 
          5 5 5 5 5 5 5 5 5 5 5 5 5 5 5 5 5 5 5 5 5 5 5 5 5 5 5 5 5 5 
          5 5 5 5 5 5 5 5 5 5 5 5 5 5 5 5 5 5 5 5 5 5 5 5 5 5 5 5 5 5 
          5 5 5 5 5 5 5 5 5 5 5 5 5 5 5 5 5 5 5 5 5 5 5 5 5 5 5 5 5 5 
          5 5 5 5 5 5 5 5 5 5 5 5 5 5 5 5 5 5 5 5 5 5 5 5 5 5 5 5 5 5 
          5 5 5 5 5 5 5 5 5 5 5 5 5 5 5 5 5 5 5 5 5 5 5 5 5 5 5 5 5 5 
          5 5 5 5 5 5 5 5 5 5 5 5 5 5 5 5 5 5 5 5 5 5 5 5 5 5 5 5 5 5 
          5 5 5 5 5 5 5 5 5 5 5 5 5 5 5 5 5 5 5 5 5 5 5 5 5 5 5 5 5 5 
          5 5 5 5 5 5 5 5 5 5 5 5 5 5 5 5 5 5 5 5 5 5 5 5 5 5 5 5 5 5 
          5 5 5 5 5 5 
        </DataArray>
      </Cells>
    </Piece>
  </UnstructuredGrid>
</VTKFile>
