<!--Point Cloud Aggregates Visualization-->
<VTKFile type="UnstructuredGrid" byte_order="LittleEndian">
  <UnstructuredGrid>
    <Piece NumberOfPoints="250" NumberOfCells="250">
      <PointData Scalars="Node Aggregate Processor">
        <DataArray type="Int32" Name="Node" format="ascii">
          0 1 2 3 4 5 6 7 8 9 
          10 11 12 13 14 30 31 32 33 34 
          35 36 37 38 39 40 41 42 43 44 
          60 61 62 63 64 65 66 67 68 69 
          70 71 72 73 74 90 91 92 93 94 
          95 96 97 98 99 100 101 102 103 104 
          120 121 122 123 124 125 126 127 128 129 
          130 131 132 133 134 300 301 302 303 304 
          305 306 307 308 309 310 311 312 313 314 
          330 331 332 333 334 335 336 337 338 339 
          340 341 342 343 344 360 361 362 363 364 
          365 366 367 368 369 370 371 372 373 374 
          390 391 392 393 394 395 396 397 398 399 
          400 401 402 403 404 420 421 422 423 424 
          425 426 427 428 429 430 431 432 433 434 
          600 601 602 603 604 605 606 607 608 609 
          610 611 612 613 614 630 631 632 633 634 
          635 636 637 638 639 640 641 642 643 644 
          660 661 662 663 664 665 666 667 668 669 
          670 671 672 673 674 690 691 692 693 694 
          695 696 697 698 699 700 701 702 703 704 
          720 721 722 723 724 725 726 727 728 729 
          730 731 732 733 734 900 901 902 903 904 
          905 906 907 908 909 910 911 912 913 914 
          930 931 932 933 934 935 936 937 938 939 
          
        </DataArray>
        <DataArray type="Int32" Name="Aggregate" format="ascii">
          0 0 1 1 1 0 0 1 1 1 
          2 2 3 3 3 2 2 3 3 3 
          2 2 3 3 3 0 0 1 1 1 
          0 0 1 1 1 2 2 3 3 3 
          2 2 3 3 3 2 2 3 3 3 
          4 4 5 5 5 4 4 5 5 5 
          6 6 7 7 7 6 6 7 7 7 
          6 6 7 7 7 4 4 5 5 5 
          4 4 5 5 5 6 6 7 7 7 
          6 6 7 7 7 6 6 7 7 7 
          4 4 5 5 5 4 4 5 5 5 
          6 6 7 7 7 6 6 7 7 7 
          6 6 7 7 7 8 8 9 9 9 
          8 8 9 9 9 10 10 11 11 11 
          10 10 11 11 11 10 10 11 11 11 
          8 8 9 9 9 8 8 9 9 9 
          10 10 11 11 11 10 10 11 11 11 
          10 10 11 11 11 8 8 9 9 9 
          8 8 9 9 9 10 10 11 11 11 
          10 10 11 11 11 10 10 11 11 11 
          12 12 13 13 13 12 12 13 13 13 
          14 14 15 15 15 14 14 15 15 15 
          14 14 15 15 15 12 12 13 13 13 
          12 12 13 13 13 14 14 15 15 15 
          14 14 15 15 15 14 14 15 15 15 
          
        </DataArray>
        <DataArray type="Int32" Name="Processor" format="ascii">
          0 0 0 0 0 0 0 0 0 0 0 0 0 0 0 0 0 0 0 0 
          0 0 0 0 0 0 0 0 0 0 0 0 0 0 0 0 0 0 0 0 
          0 0 0 0 0 0 0 0 0 0 0 0 0 0 0 0 0 0 0 0 
          0 0 0 0 0 0 0 0 0 0 0 0 0 0 0 0 0 0 0 0 
          0 0 0 0 0 0 0 0 0 0 0 0 0 0 0 0 0 0 0 0 
          0 0 0 0 0 0 0 0 0 0 0 0 0 0 0 0 0 0 0 0 
          0 0 0 0 0 0 0 0 0 0 0 0 0 0 0 0 0 0 0 0 
          0 0 0 0 0 0 0 0 0 0 0 0 0 0 0 0 0 0 0 0 
          0 0 0 0 0 0 0 0 0 0 0 0 0 0 0 0 0 0 0 0 
          0 0 0 0 0 0 0 0 0 0 0 0 0 0 0 0 0 0 0 0 
          0 0 0 0 0 0 0 0 0 0 0 0 0 0 0 0 0 0 0 0 
          0 0 0 0 0 0 0 0 0 0 0 0 0 0 0 0 0 0 0 0 
          0 0 0 0 0 0 0 0 0 0 
        </DataArray>
      </PointData>
      <Points>
        <DataArray type="Float64" NumberOfComponents="3" format="ascii">
          0 0 0 0.111111 0 0 0.222222 0 0 
          0.333333 0 0 0.444444 0 0 0 0.111111 0 
          0.111111 0.111111 0 0.222222 0.111111 0 0.333333 0.111111 0 
          0.444444 0.111111 0 0 0.222222 0 0.111111 0.222222 0 
          0.222222 0.222222 0 0.333333 0.222222 0 0.444444 0.222222 0 
          0 0.333333 0 0.111111 0.333333 0 0.222222 0.333333 0 
          0.333333 0.333333 0 0.444444 0.333333 0 0 0.444444 0 
          0.111111 0.444444 0 0.222222 0.444444 0 0.333333 0.444444 0 
          0.444444 0.444444 0 0 0 0.111111 0.111111 0 0.111111 
          0.222222 0 0.111111 0.333333 0 0.111111 0.444444 0 0.111111 
          0 0.111111 0.111111 0.111111 0.111111 0.111111 0.222222 0.111111 0.111111 
          0.333333 0.111111 0.111111 0.444444 0.111111 0.111111 0 0.222222 0.111111 
          0.111111 0.222222 0.111111 0.222222 0.222222 0.111111 0.333333 0.222222 0.111111 
          0.444444 0.222222 0.111111 0 0.333333 0.111111 0.111111 0.333333 0.111111 
          0.222222 0.333333 0.111111 0.333333 0.333333 0.111111 0.444444 0.333333 0.111111 
          0 0.444444 0.111111 0.111111 0.444444 0.111111 0.222222 0.444444 0.111111 
          0.333333 0.444444 0.111111 0.444444 0.444444 0.111111 0 0 0.222222 
          0.111111 0 0.222222 0.222222 0 0.222222 0.333333 0 0.222222 
          0.444444 0 0.222222 0 0.111111 0.222222 0.111111 0.111111 0.222222 
          0.222222 0.111111 0.222222 0.333333 0.111111 0.222222 0.444444 0.111111 0.222222 
          0 0.222222 0.222222 0.111111 0.222222 0.222222 0.222222 0.222222 0.222222 
          0.333333 0.222222 0.222222 0.444444 0.222222 0.222222 0 0.333333 0.222222 
          0.111111 0.333333 0.222222 0.222222 0.333333 0.222222 0.333333 0.333333 0.222222 
          0.444444 0.333333 0.222222 0 0.444444 0.222222 0.111111 0.444444 0.222222 
          0.222222 0.444444 0.222222 0.333333 0.444444 0.222222 0.444444 0.444444 0.222222 
          0 0 0.333333 0.111111 0 0.333333 0.222222 0 0.333333 
          0.333333 0 0.333333 0.444444 0 0.333333 0 0.111111 0.333333 
          0.111111 0.111111 0.333333 0.222222 0.111111 0.333333 0.333333 0.111111 0.333333 
          0.444444 0.111111 0.333333 0 0.222222 0.333333 0.111111 0.222222 0.333333 
          0.222222 0.222222 0.333333 0.333333 0.222222 0.333333 0.444444 0.222222 0.333333 
          0 0.333333 0.333333 0.111111 0.333333 0.333333 0.222222 0.333333 0.333333 
          0.333333 0.333333 0.333333 0.444444 0.333333 0.333333 0 0.444444 0.333333 
          0.111111 0.444444 0.333333 0.222222 0.444444 0.333333 0.333333 0.444444 0.333333 
          0.444444 0.444444 0.333333 0 0 0.444444 0.111111 0 0.444444 
          0.222222 0 0.444444 0.333333 0 0.444444 0.444444 0 0.444444 
          0 0.111111 0.444444 0.111111 0.111111 0.444444 0.222222 0.111111 0.444444 
          0.333333 0.111111 0.444444 0.444444 0.111111 0.444444 0 0.222222 0.444444 
          0.111111 0.222222 0.444444 0.222222 0.222222 0.444444 0.333333 0.222222 0.444444 
          0.444444 0.222222 0.444444 0 0.333333 0.444444 0.111111 0.333333 0.444444 
          0.222222 0.333333 0.444444 0.333333 0.333333 0.444444 0.444444 0.333333 0.444444 
          0 0.444444 0.444444 0.111111 0.444444 0.444444 0.222222 0.444444 0.444444 
          0.333333 0.444444 0.444444 0.444444 0.444444 0.444444 0 0 0.555556 
          0.111111 0 0.555556 0.222222 0 0.555556 0.333333 0 0.555556 
          0.444444 0 0.555556 0 0.111111 0.555556 0.111111 0.111111 0.555556 
          0.222222 0.111111 0.555556 0.333333 0.111111 0.555556 0.444444 0.111111 0.555556 
          0 0.222222 0.555556 0.111111 0.222222 0.555556 0.222222 0.222222 0.555556 
          0.333333 0.222222 0.555556 0.444444 0.222222 0.555556 0 0.333333 0.555556 
          0.111111 0.333333 0.555556 0.222222 0.333333 0.555556 0.333333 0.333333 0.555556 
          0.444444 0.333333 0.555556 0 0.444444 0.555556 0.111111 0.444444 0.555556 
          0.222222 0.444444 0.555556 0.333333 0.444444 0.555556 0.444444 0.444444 0.555556 
          0 0 0.666667 0.111111 0 0.666667 0.222222 0 0.666667 
          0.333333 0 0.666667 0.444444 0 0.666667 0 0.111111 0.666667 
          0.111111 0.111111 0.666667 0.222222 0.111111 0.666667 0.333333 0.111111 0.666667 
          0.444444 0.111111 0.666667 0 0.222222 0.666667 0.111111 0.222222 0.666667 
          0.222222 0.222222 0.666667 0.333333 0.222222 0.666667 0.444444 0.222222 0.666667 
          0 0.333333 0.666667 0.111111 0.333333 0.666667 0.222222 0.333333 0.666667 
          0.333333 0.333333 0.666667 0.444444 0.333333 0.666667 0 0.444444 0.666667 
          0.111111 0.444444 0.666667 0.222222 0.444444 0.666667 0.333333 0.444444 0.666667 
          0.444444 0.444444 0.666667 0 0 0.777778 0.111111 0 0.777778 
          0.222222 0 0.777778 0.333333 0 0.777778 0.444444 0 0.777778 
          0 0.111111 0.777778 0.111111 0.111111 0.777778 0.222222 0.111111 0.777778 
          0.333333 0.111111 0.777778 0.444444 0.111111 0.777778 0 0.222222 0.777778 
          0.111111 0.222222 0.777778 0.222222 0.222222 0.777778 0.333333 0.222222 0.777778 
          0.444444 0.222222 0.777778 0 0.333333 0.777778 0.111111 0.333333 0.777778 
          0.222222 0.333333 0.777778 0.333333 0.333333 0.777778 0.444444 0.333333 0.777778 
          0 0.444444 0.777778 0.111111 0.444444 0.777778 0.222222 0.444444 0.777778 
          0.333333 0.444444 0.777778 0.444444 0.444444 0.777778 0 0 0.888889 
          0.111111 0 0.888889 0.222222 0 0.888889 0.333333 0 0.888889 
          0.444444 0 0.888889 0 0.111111 0.888889 0.111111 0.111111 0.888889 
          0.222222 0.111111 0.888889 0.333333 0.111111 0.888889 0.444444 0.111111 0.888889 
          0 0.222222 0.888889 0.111111 0.222222 0.888889 0.222222 0.222222 0.888889 
          0.333333 0.222222 0.888889 0.444444 0.222222 0.888889 0 0.333333 0.888889 
          0.111111 0.333333 0.888889 0.222222 0.333333 0.888889 0.333333 0.333333 0.888889 
          0.444444 0.333333 0.888889 0 0.444444 0.888889 0.111111 0.444444 0.888889 
          0.222222 0.444444 0.888889 0.333333 0.444444 0.888889 0.444444 0.444444 0.888889 
          0 0 1 0.111111 0 1 0.222222 0 1 
          0.333333 0 1 0.444444 0 1 0 0.111111 1 
          0.111111 0.111111 1 0.222222 0.111111 1 0.333333 0.111111 1 
          0.444444 0.111111 1 0 0.222222 1 0.111111 0.222222 1 
          0.222222 0.222222 1 0.333333 0.222222 1 0.444444 0.222222 1 
          0 0.333333 1 0.111111 0.333333 1 0.222222 0.333333 1 
          0.333333 0.333333 1 0.444444 0.333333 1 0 0.444444 1 
          0.111111 0.444444 1 0.222222 0.444444 1 0.333333 0.444444 1 
          0.444444 0.444444 1 
        </DataArray>
      </Points>
      <Cells>
        <DataArray type="Int32" Name="connectivity" format="ascii">
          0 1 2 3 4 5 6 7 8 9 
          10 11 12 13 14 15 16 17 18 19 
          20 21 22 23 24 25 26 27 28 29 
          30 31 32 33 34 35 36 37 38 39 
          40 41 42 43 44 45 46 47 48 49 
          50 51 52 53 54 55 56 57 58 59 
          60 61 62 63 64 65 66 67 68 69 
          70 71 72 73 74 75 76 77 78 79 
          80 81 82 83 84 85 86 87 88 89 
          90 91 92 93 94 95 96 97 98 99 
          100 101 102 103 104 105 106 107 108 109 
          110 111 112 113 114 115 116 117 118 119 
          120 121 122 123 124 125 126 127 128 129 
          130 131 132 133 134 135 136 137 138 139 
          140 141 142 143 144 145 146 147 148 149 
          150 151 152 153 154 155 156 157 158 159 
          160 161 162 163 164 165 166 167 168 169 
          170 171 172 173 174 175 176 177 178 179 
          180 181 182 183 184 185 186 187 188 189 
          190 191 192 193 194 195 196 197 198 199 
          200 201 202 203 204 205 206 207 208 209 
          210 211 212 213 214 215 216 217 218 219 
          220 221 222 223 224 225 226 227 228 229 
          230 231 232 233 234 235 236 237 238 239 
          240 241 242 243 244 245 246 247 248 249 
          
        </DataArray>
        <DataArray type="Int32" Name="offsets" format="ascii">
          1 2 3 4 5 6 7 8 9 10 
          11 12 13 14 15 16 17 18 19 20 
          21 22 23 24 25 26 27 28 29 30 
          31 32 33 34 35 36 37 38 39 40 
          41 42 43 44 45 46 47 48 49 50 
          51 52 53 54 55 56 57 58 59 60 
          61 62 63 64 65 66 67 68 69 70 
          71 72 73 74 75 76 77 78 79 80 
          81 82 83 84 85 86 87 88 89 90 
          91 92 93 94 95 96 97 98 99 100 
          101 102 103 104 105 106 107 108 109 110 
          111 112 113 114 115 116 117 118 119 120 
          121 122 123 124 125 126 127 128 129 130 
          131 132 133 134 135 136 137 138 139 140 
          141 142 143 144 145 146 147 148 149 150 
          151 152 153 154 155 156 157 158 159 160 
          161 162 163 164 165 166 167 168 169 170 
          171 172 173 174 175 176 177 178 179 180 
          181 182 183 184 185 186 187 188 189 190 
          191 192 193 194 195 196 197 198 199 200 
          201 202 203 204 205 206 207 208 209 210 
          211 212 213 214 215 216 217 218 219 220 
          221 222 223 224 225 226 227 228 229 230 
          231 232 233 234 235 236 237 238 239 240 
          241 242 243 244 245 246 247 248 249 250 
          
        </DataArray>
        <DataArray type="Int32" Name="types" format="ascii">
          1 1 1 1 1 1 1 1 1 1 1 1 1 1 1 1 1 1 1 1 1 1 1 1 1 1 1 1 1 1 
          1 1 1 1 1 1 1 1 1 1 1 1 1 1 1 1 1 1 1 1 1 1 1 1 1 1 1 1 1 1 
          1 1 1 1 1 1 1 1 1 1 1 1 1 1 1 1 1 1 1 1 1 1 1 1 1 1 1 1 1 1 
          1 1 1 1 1 1 1 1 1 1 1 1 1 1 1 1 1 1 1 1 1 1 1 1 1 1 1 1 1 1 
          1 1 1 1 1 1 1 1 1 1 1 1 1 1 1 1 1 1 1 1 1 1 1 1 1 1 1 1 1 1 
          1 1 1 1 1 1 1 1 1 1 1 1 1 1 1 1 1 1 1 1 1 1 1 1 1 1 1 1 1 1 
          1 1 1 1 1 1 1 1 1 1 1 1 1 1 1 1 1 1 1 1 1 1 1 1 1 1 1 1 1 1 
          1 1 1 1 1 1 1 1 1 1 1 1 1 1 1 1 1 1 1 1 1 1 1 1 1 1 1 1 1 1 
          1 1 1 1 1 1 1 1 1 1 
        </DataArray>
      </Cells>
    </Piece>
  </UnstructuredGrid>
</VTKFile>
