<!--Point Cloud Aggregates Visualization-->
<VTKFile type="UnstructuredGrid" byte_order="LittleEndian">
  <UnstructuredGrid>
    <Piece NumberOfPoints="250" NumberOfCells="250">
      <PointData Scalars="Node Aggregate Processor">
        <DataArray type="Int32" Name="Node" format="ascii">
          5 6 7 8 9 15 16 17 18 19 
          25 26 27 28 29 35 36 37 38 39 
          45 46 47 48 49 105 106 107 108 109 
          115 116 117 118 119 125 126 127 128 129 
          135 136 137 138 139 145 146 147 148 149 
          205 206 207 208 209 215 216 217 218 219 
          225 226 227 228 229 235 236 237 238 239 
          245 246 247 248 249 305 306 307 308 309 
          315 316 317 318 319 325 326 327 328 329 
          335 336 337 338 339 345 346 347 348 349 
          405 406 407 408 409 415 416 417 418 419 
          425 426 427 428 429 435 436 437 438 439 
          445 446 447 448 449 505 506 507 508 509 
          515 516 517 518 519 525 526 527 528 529 
          535 536 537 538 539 545 546 547 548 549 
          605 606 607 608 609 615 616 617 618 619 
          625 626 627 628 629 635 636 637 638 639 
          645 646 647 648 649 705 706 707 708 709 
          715 716 717 718 719 725 726 727 728 729 
          735 736 737 738 739 745 746 747 748 749 
          805 806 807 808 809 815 816 817 818 819 
          825 826 827 828 829 835 836 837 838 839 
          845 846 847 848 849 905 906 907 908 909 
          915 916 917 918 919 925 926 927 928 929 
          935 936 937 938 939 945 946 947 948 949 
          
        </DataArray>
        <DataArray type="Int32" Name="Aggregate" format="ascii">
          35 35 36 36 36 35 37 41 36 38 
          37 37 37 38 38 39 37 37 40 38 
          39 39 40 40 40 35 42 41 36 43 
          35 41 41 41 38 44 37 41 45 38 
          39 46 41 40 47 39 46 40 40 47 
          42 42 42 43 43 44 42 41 45 43 
          44 44 45 45 45 44 46 48 45 47 
          46 46 46 47 47 49 42 42 50 43 
          44 51 48 45 43 44 51 48 45 52 
          53 48 48 48 52 53 46 48 54 47 
          49 49 50 50 50 49 51 55 50 52 
          51 51 51 52 52 53 51 48 54 52 
          53 53 54 54 54 49 56 55 50 57 
          49 55 55 55 57 58 51 55 59 52 
          58 60 55 54 61 53 60 54 54 61 
          56 56 56 57 57 58 56 55 59 57 
          58 58 59 59 59 58 60 62 59 61 
          60 60 60 61 61 63 56 56 64 57 
          63 65 62 59 66 58 65 62 59 66 
          67 62 62 62 61 67 60 62 68 61 
          63 63 64 64 64 63 65 69 64 66 
          65 65 65 66 66 67 65 62 68 66 
          67 67 68 68 68 63 69 69 64 64 
          63 69 69 69 66 65 65 69 69 66 
          67 65 62 68 66 67 67 68 68 68 
          
        </DataArray>
        <DataArray type="Int32" Name="Processor" format="ascii">
          1 1 1 1 1 1 1 1 1 1 1 1 1 1 1 1 1 1 1 1 
          1 1 1 1 1 1 1 1 1 1 1 1 1 1 1 1 1 1 1 1 
          1 1 1 1 1 1 1 1 1 1 1 1 1 1 1 1 1 1 1 1 
          1 1 1 1 1 1 1 1 1 1 1 1 1 1 1 1 1 1 1 1 
          1 1 1 1 1 1 1 1 1 1 1 1 1 1 1 1 1 1 1 1 
          1 1 1 1 1 1 1 1 1 1 1 1 1 1 1 1 1 1 1 1 
          1 1 1 1 1 1 1 1 1 1 1 1 1 1 1 1 1 1 1 1 
          1 1 1 1 1 1 1 1 1 1 1 1 1 1 1 1 1 1 1 1 
          1 1 1 1 1 1 1 1 1 1 1 1 1 1 1 1 1 1 1 1 
          1 1 1 1 1 1 1 1 1 1 1 1 1 1 1 1 1 1 1 1 
          1 1 1 1 1 1 1 1 1 1 1 1 1 1 1 1 1 1 1 1 
          1 1 1 1 1 1 1 1 1 1 1 1 1 1 1 1 1 1 1 1 
          1 1 1 1 1 1 1 1 1 1 
        </DataArray>
      </PointData>
      <Points>
        <DataArray type="Float64" NumberOfComponents="3" format="ascii">
          0.555556 0 0 0.666667 0 0 0.777778 0 0 
          0.888889 0 0 1 0 0 0.555556 0.111111 0 
          0.666667 0.111111 0 0.777778 0.111111 0 0.888889 0.111111 0 
          1 0.111111 0 0.555556 0.222222 0 0.666667 0.222222 0 
          0.777778 0.222222 0 0.888889 0.222222 0 1 0.222222 0 
          0.555556 0.333333 0 0.666667 0.333333 0 0.777778 0.333333 0 
          0.888889 0.333333 0 1 0.333333 0 0.555556 0.444444 0 
          0.666667 0.444444 0 0.777778 0.444444 0 0.888889 0.444444 0 
          1 0.444444 0 0.555556 0 0.111111 0.666667 0 0.111111 
          0.777778 0 0.111111 0.888889 0 0.111111 1 0 0.111111 
          0.555556 0.111111 0.111111 0.666667 0.111111 0.111111 0.777778 0.111111 0.111111 
          0.888889 0.111111 0.111111 1 0.111111 0.111111 0.555556 0.222222 0.111111 
          0.666667 0.222222 0.111111 0.777778 0.222222 0.111111 0.888889 0.222222 0.111111 
          1 0.222222 0.111111 0.555556 0.333333 0.111111 0.666667 0.333333 0.111111 
          0.777778 0.333333 0.111111 0.888889 0.333333 0.111111 1 0.333333 0.111111 
          0.555556 0.444444 0.111111 0.666667 0.444444 0.111111 0.777778 0.444444 0.111111 
          0.888889 0.444444 0.111111 1 0.444444 0.111111 0.555556 0 0.222222 
          0.666667 0 0.222222 0.777778 0 0.222222 0.888889 0 0.222222 
          1 0 0.222222 0.555556 0.111111 0.222222 0.666667 0.111111 0.222222 
          0.777778 0.111111 0.222222 0.888889 0.111111 0.222222 1 0.111111 0.222222 
          0.555556 0.222222 0.222222 0.666667 0.222222 0.222222 0.777778 0.222222 0.222222 
          0.888889 0.222222 0.222222 1 0.222222 0.222222 0.555556 0.333333 0.222222 
          0.666667 0.333333 0.222222 0.777778 0.333333 0.222222 0.888889 0.333333 0.222222 
          1 0.333333 0.222222 0.555556 0.444444 0.222222 0.666667 0.444444 0.222222 
          0.777778 0.444444 0.222222 0.888889 0.444444 0.222222 1 0.444444 0.222222 
          0.555556 0 0.333333 0.666667 0 0.333333 0.777778 0 0.333333 
          0.888889 0 0.333333 1 0 0.333333 0.555556 0.111111 0.333333 
          0.666667 0.111111 0.333333 0.777778 0.111111 0.333333 0.888889 0.111111 0.333333 
          1 0.111111 0.333333 0.555556 0.222222 0.333333 0.666667 0.222222 0.333333 
          0.777778 0.222222 0.333333 0.888889 0.222222 0.333333 1 0.222222 0.333333 
          0.555556 0.333333 0.333333 0.666667 0.333333 0.333333 0.777778 0.333333 0.333333 
          0.888889 0.333333 0.333333 1 0.333333 0.333333 0.555556 0.444444 0.333333 
          0.666667 0.444444 0.333333 0.777778 0.444444 0.333333 0.888889 0.444444 0.333333 
          1 0.444444 0.333333 0.555556 0 0.444444 0.666667 0 0.444444 
          0.777778 0 0.444444 0.888889 0 0.444444 1 0 0.444444 
          0.555556 0.111111 0.444444 0.666667 0.111111 0.444444 0.777778 0.111111 0.444444 
          0.888889 0.111111 0.444444 1 0.111111 0.444444 0.555556 0.222222 0.444444 
          0.666667 0.222222 0.444444 0.777778 0.222222 0.444444 0.888889 0.222222 0.444444 
          1 0.222222 0.444444 0.555556 0.333333 0.444444 0.666667 0.333333 0.444444 
          0.777778 0.333333 0.444444 0.888889 0.333333 0.444444 1 0.333333 0.444444 
          0.555556 0.444444 0.444444 0.666667 0.444444 0.444444 0.777778 0.444444 0.444444 
          0.888889 0.444444 0.444444 1 0.444444 0.444444 0.555556 0 0.555556 
          0.666667 0 0.555556 0.777778 0 0.555556 0.888889 0 0.555556 
          1 0 0.555556 0.555556 0.111111 0.555556 0.666667 0.111111 0.555556 
          0.777778 0.111111 0.555556 0.888889 0.111111 0.555556 1 0.111111 0.555556 
          0.555556 0.222222 0.555556 0.666667 0.222222 0.555556 0.777778 0.222222 0.555556 
          0.888889 0.222222 0.555556 1 0.222222 0.555556 0.555556 0.333333 0.555556 
          0.666667 0.333333 0.555556 0.777778 0.333333 0.555556 0.888889 0.333333 0.555556 
          1 0.333333 0.555556 0.555556 0.444444 0.555556 0.666667 0.444444 0.555556 
          0.777778 0.444444 0.555556 0.888889 0.444444 0.555556 1 0.444444 0.555556 
          0.555556 0 0.666667 0.666667 0 0.666667 0.777778 0 0.666667 
          0.888889 0 0.666667 1 0 0.666667 0.555556 0.111111 0.666667 
          0.666667 0.111111 0.666667 0.777778 0.111111 0.666667 0.888889 0.111111 0.666667 
          1 0.111111 0.666667 0.555556 0.222222 0.666667 0.666667 0.222222 0.666667 
          0.777778 0.222222 0.666667 0.888889 0.222222 0.666667 1 0.222222 0.666667 
          0.555556 0.333333 0.666667 0.666667 0.333333 0.666667 0.777778 0.333333 0.666667 
          0.888889 0.333333 0.666667 1 0.333333 0.666667 0.555556 0.444444 0.666667 
          0.666667 0.444444 0.666667 0.777778 0.444444 0.666667 0.888889 0.444444 0.666667 
          1 0.444444 0.666667 0.555556 0 0.777778 0.666667 0 0.777778 
          0.777778 0 0.777778 0.888889 0 0.777778 1 0 0.777778 
          0.555556 0.111111 0.777778 0.666667 0.111111 0.777778 0.777778 0.111111 0.777778 
          0.888889 0.111111 0.777778 1 0.111111 0.777778 0.555556 0.222222 0.777778 
          0.666667 0.222222 0.777778 0.777778 0.222222 0.777778 0.888889 0.222222 0.777778 
          1 0.222222 0.777778 0.555556 0.333333 0.777778 0.666667 0.333333 0.777778 
          0.777778 0.333333 0.777778 0.888889 0.333333 0.777778 1 0.333333 0.777778 
          0.555556 0.444444 0.777778 0.666667 0.444444 0.777778 0.777778 0.444444 0.777778 
          0.888889 0.444444 0.777778 1 0.444444 0.777778 0.555556 0 0.888889 
          0.666667 0 0.888889 0.777778 0 0.888889 0.888889 0 0.888889 
          1 0 0.888889 0.555556 0.111111 0.888889 0.666667 0.111111 0.888889 
          0.777778 0.111111 0.888889 0.888889 0.111111 0.888889 1 0.111111 0.888889 
          0.555556 0.222222 0.888889 0.666667 0.222222 0.888889 0.777778 0.222222 0.888889 
          0.888889 0.222222 0.888889 1 0.222222 0.888889 0.555556 0.333333 0.888889 
          0.666667 0.333333 0.888889 0.777778 0.333333 0.888889 0.888889 0.333333 0.888889 
          1 0.333333 0.888889 0.555556 0.444444 0.888889 0.666667 0.444444 0.888889 
          0.777778 0.444444 0.888889 0.888889 0.444444 0.888889 1 0.444444 0.888889 
          0.555556 0 1 0.666667 0 1 0.777778 0 1 
          0.888889 0 1 1 0 1 0.555556 0.111111 1 
          0.666667 0.111111 1 0.777778 0.111111 1 0.888889 0.111111 1 
          1 0.111111 1 0.555556 0.222222 1 0.666667 0.222222 1 
          0.777778 0.222222 1 0.888889 0.222222 1 1 0.222222 1 
          0.555556 0.333333 1 0.666667 0.333333 1 0.777778 0.333333 1 
          0.888889 0.333333 1 1 0.333333 1 0.555556 0.444444 1 
          0.666667 0.444444 1 0.777778 0.444444 1 0.888889 0.444444 1 
          1 0.444444 1 
        </DataArray>
      </Points>
      <Cells>
        <DataArray type="Int32" Name="connectivity" format="ascii">
          0 1 2 3 4 5 6 7 8 9 
          10 11 12 13 14 15 16 17 18 19 
          20 21 22 23 24 25 26 27 28 29 
          30 31 32 33 34 35 36 37 38 39 
          40 41 42 43 44 45 46 47 48 49 
          50 51 52 53 54 55 56 57 58 59 
          60 61 62 63 64 65 66 67 68 69 
          70 71 72 73 74 75 76 77 78 79 
          80 81 82 83 84 85 86 87 88 89 
          90 91 92 93 94 95 96 97 98 99 
          100 101 102 103 104 105 106 107 108 109 
          110 111 112 113 114 115 116 117 118 119 
          120 121 122 123 124 125 126 127 128 129 
          130 131 132 133 134 135 136 137 138 139 
          140 141 142 143 144 145 146 147 148 149 
          150 151 152 153 154 155 156 157 158 159 
          160 161 162 163 164 165 166 167 168 169 
          170 171 172 173 174 175 176 177 178 179 
          180 181 182 183 184 185 186 187 188 189 
          190 191 192 193 194 195 196 197 198 199 
          200 201 202 203 204 205 206 207 208 209 
          210 211 212 213 214 215 216 217 218 219 
          220 221 222 223 224 225 226 227 228 229 
          230 231 232 233 234 235 236 237 238 239 
          240 241 242 243 244 245 246 247 248 249 
          
        </DataArray>
        <DataArray type="Int32" Name="offsets" format="ascii">
          1 2 3 4 5 6 7 8 9 10 
          11 12 13 14 15 16 17 18 19 20 
          21 22 23 24 25 26 27 28 29 30 
          31 32 33 34 35 36 37 38 39 40 
          41 42 43 44 45 46 47 48 49 50 
          51 52 53 54 55 56 57 58 59 60 
          61 62 63 64 65 66 67 68 69 70 
          71 72 73 74 75 76 77 78 79 80 
          81 82 83 84 85 86 87 88 89 90 
          91 92 93 94 95 96 97 98 99 100 
          101 102 103 104 105 106 107 108 109 110 
          111 112 113 114 115 116 117 118 119 120 
          121 122 123 124 125 126 127 128 129 130 
          131 132 133 134 135 136 137 138 139 140 
          141 142 143 144 145 146 147 148 149 150 
          151 152 153 154 155 156 157 158 159 160 
          161 162 163 164 165 166 167 168 169 170 
          171 172 173 174 175 176 177 178 179 180 
          181 182 183 184 185 186 187 188 189 190 
          191 192 193 194 195 196 197 198 199 200 
          201 202 203 204 205 206 207 208 209 210 
          211 212 213 214 215 216 217 218 219 220 
          221 222 223 224 225 226 227 228 229 230 
          231 232 233 234 235 236 237 238 239 240 
          241 242 243 244 245 246 247 248 249 250 
          
        </DataArray>
        <DataArray type="Int32" Name="types" format="ascii">
          1 1 1 1 1 1 1 1 1 1 1 1 1 1 1 1 1 1 1 1 1 1 1 1 1 1 1 1 1 1 
          1 1 1 1 1 1 1 1 1 1 1 1 1 1 1 1 1 1 1 1 1 1 1 1 1 1 1 1 1 1 
          1 1 1 1 1 1 1 1 1 1 1 1 1 1 1 1 1 1 1 1 1 1 1 1 1 1 1 1 1 1 
          1 1 1 1 1 1 1 1 1 1 1 1 1 1 1 1 1 1 1 1 1 1 1 1 1 1 1 1 1 1 
          1 1 1 1 1 1 1 1 1 1 1 1 1 1 1 1 1 1 1 1 1 1 1 1 1 1 1 1 1 1 
          1 1 1 1 1 1 1 1 1 1 1 1 1 1 1 1 1 1 1 1 1 1 1 1 1 1 1 1 1 1 
          1 1 1 1 1 1 1 1 1 1 1 1 1 1 1 1 1 1 1 1 1 1 1 1 1 1 1 1 1 1 
          1 1 1 1 1 1 1 1 1 1 1 1 1 1 1 1 1 1 1 1 1 1 1 1 1 1 1 1 1 1 
          1 1 1 1 1 1 1 1 1 1 
        </DataArray>
      </Cells>
    </Piece>
  </UnstructuredGrid>
</VTKFile>
