<!--Point Cloud Aggregates Visualization-->
<VTKFile type="UnstructuredGrid" byte_order="LittleEndian">
  <UnstructuredGrid>
    <Piece NumberOfPoints="250" NumberOfCells="250">
      <PointData Scalars="Node Aggregate Processor">
        <DataArray type="Int32" Name="Node" format="ascii">
          15 16 17 18 19 20 21 22 23 24 
          25 26 27 28 29 45 46 47 48 49 
          50 51 52 53 54 55 56 57 58 59 
          75 76 77 78 79 80 81 82 83 84 
          85 86 87 88 89 105 106 107 108 109 
          110 111 112 113 114 115 116 117 118 119 
          135 136 137 138 139 140 141 142 143 144 
          145 146 147 148 149 315 316 317 318 319 
          320 321 322 323 324 325 326 327 328 329 
          345 346 347 348 349 350 351 352 353 354 
          355 356 357 358 359 375 376 377 378 379 
          380 381 382 383 384 385 386 387 388 389 
          405 406 407 408 409 410 411 412 413 414 
          415 416 417 418 419 435 436 437 438 439 
          440 441 442 443 444 445 446 447 448 449 
          615 616 617 618 619 620 621 622 623 624 
          625 626 627 628 629 645 646 647 648 649 
          650 651 652 653 654 655 656 657 658 659 
          675 676 677 678 679 680 681 682 683 684 
          685 686 687 688 689 705 706 707 708 709 
          710 711 712 713 714 715 716 717 718 719 
          735 736 737 738 739 740 741 742 743 744 
          745 746 747 748 749 915 916 917 918 919 
          920 921 922 923 924 925 926 927 928 929 
          945 946 947 948 949 950 951 952 953 954 
          
        </DataArray>
        <DataArray type="Int32" Name="Aggregate" format="ascii">
          16 16 17 17 17 16 16 17 17 17 
          18 18 19 19 19 18 18 19 19 19 
          18 18 19 19 19 16 16 17 17 17 
          16 16 17 17 17 18 18 19 19 19 
          18 18 19 19 19 18 18 19 19 19 
          20 20 21 21 21 20 20 21 21 21 
          22 22 23 23 23 22 22 23 23 23 
          22 22 23 23 23 20 20 21 21 21 
          20 20 21 21 21 22 22 23 23 23 
          22 22 23 23 23 22 22 23 23 23 
          20 20 21 21 21 20 20 21 21 21 
          22 22 23 23 23 22 22 23 23 23 
          22 22 23 23 23 24 24 25 25 25 
          24 24 25 25 25 26 26 27 27 27 
          26 26 27 27 27 26 26 27 27 27 
          24 24 25 25 25 24 24 25 25 25 
          26 26 27 27 27 26 26 27 27 27 
          26 26 27 27 27 24 24 25 25 25 
          24 24 25 25 25 26 26 27 27 27 
          26 26 27 27 27 26 26 27 27 27 
          28 28 29 29 29 28 28 29 29 29 
          30 30 31 31 31 30 30 31 31 31 
          30 30 31 31 31 28 28 29 29 29 
          28 28 29 29 29 30 30 31 31 31 
          30 30 31 31 31 30 30 31 31 31 
          
        </DataArray>
        <DataArray type="Int32" Name="Processor" format="ascii">
          1 1 1 1 1 1 1 1 1 1 1 1 1 1 1 1 1 1 1 1 
          1 1 1 1 1 1 1 1 1 1 1 1 1 1 1 1 1 1 1 1 
          1 1 1 1 1 1 1 1 1 1 1 1 1 1 1 1 1 1 1 1 
          1 1 1 1 1 1 1 1 1 1 1 1 1 1 1 1 1 1 1 1 
          1 1 1 1 1 1 1 1 1 1 1 1 1 1 1 1 1 1 1 1 
          1 1 1 1 1 1 1 1 1 1 1 1 1 1 1 1 1 1 1 1 
          1 1 1 1 1 1 1 1 1 1 1 1 1 1 1 1 1 1 1 1 
          1 1 1 1 1 1 1 1 1 1 1 1 1 1 1 1 1 1 1 1 
          1 1 1 1 1 1 1 1 1 1 1 1 1 1 1 1 1 1 1 1 
          1 1 1 1 1 1 1 1 1 1 1 1 1 1 1 1 1 1 1 1 
          1 1 1 1 1 1 1 1 1 1 1 1 1 1 1 1 1 1 1 1 
          1 1 1 1 1 1 1 1 1 1 1 1 1 1 1 1 1 1 1 1 
          1 1 1 1 1 1 1 1 1 1 
        </DataArray>
      </PointData>
      <Points>
        <DataArray type="Float64" NumberOfComponents="3" format="ascii">
          0.555556 0 0 0.666667 0 0 0.777778 0 0 
          0.888889 0 0 1 0 0 0.555556 0.111111 0 
          0.666667 0.111111 0 0.777778 0.111111 0 0.888889 0.111111 0 
          1 0.111111 0 0.555556 0.222222 0 0.666667 0.222222 0 
          0.777778 0.222222 0 0.888889 0.222222 0 1 0.222222 0 
          0.555556 0.333333 0 0.666667 0.333333 0 0.777778 0.333333 0 
          0.888889 0.333333 0 1 0.333333 0 0.555556 0.444444 0 
          0.666667 0.444444 0 0.777778 0.444444 0 0.888889 0.444444 0 
          1 0.444444 0 0.555556 0 0.111111 0.666667 0 0.111111 
          0.777778 0 0.111111 0.888889 0 0.111111 1 0 0.111111 
          0.555556 0.111111 0.111111 0.666667 0.111111 0.111111 0.777778 0.111111 0.111111 
          0.888889 0.111111 0.111111 1 0.111111 0.111111 0.555556 0.222222 0.111111 
          0.666667 0.222222 0.111111 0.777778 0.222222 0.111111 0.888889 0.222222 0.111111 
          1 0.222222 0.111111 0.555556 0.333333 0.111111 0.666667 0.333333 0.111111 
          0.777778 0.333333 0.111111 0.888889 0.333333 0.111111 1 0.333333 0.111111 
          0.555556 0.444444 0.111111 0.666667 0.444444 0.111111 0.777778 0.444444 0.111111 
          0.888889 0.444444 0.111111 1 0.444444 0.111111 0.555556 0 0.222222 
          0.666667 0 0.222222 0.777778 0 0.222222 0.888889 0 0.222222 
          1 0 0.222222 0.555556 0.111111 0.222222 0.666667 0.111111 0.222222 
          0.777778 0.111111 0.222222 0.888889 0.111111 0.222222 1 0.111111 0.222222 
          0.555556 0.222222 0.222222 0.666667 0.222222 0.222222 0.777778 0.222222 0.222222 
          0.888889 0.222222 0.222222 1 0.222222 0.222222 0.555556 0.333333 0.222222 
          0.666667 0.333333 0.222222 0.777778 0.333333 0.222222 0.888889 0.333333 0.222222 
          1 0.333333 0.222222 0.555556 0.444444 0.222222 0.666667 0.444444 0.222222 
          0.777778 0.444444 0.222222 0.888889 0.444444 0.222222 1 0.444444 0.222222 
          0.555556 0 0.333333 0.666667 0 0.333333 0.777778 0 0.333333 
          0.888889 0 0.333333 1 0 0.333333 0.555556 0.111111 0.333333 
          0.666667 0.111111 0.333333 0.777778 0.111111 0.333333 0.888889 0.111111 0.333333 
          1 0.111111 0.333333 0.555556 0.222222 0.333333 0.666667 0.222222 0.333333 
          0.777778 0.222222 0.333333 0.888889 0.222222 0.333333 1 0.222222 0.333333 
          0.555556 0.333333 0.333333 0.666667 0.333333 0.333333 0.777778 0.333333 0.333333 
          0.888889 0.333333 0.333333 1 0.333333 0.333333 0.555556 0.444444 0.333333 
          0.666667 0.444444 0.333333 0.777778 0.444444 0.333333 0.888889 0.444444 0.333333 
          1 0.444444 0.333333 0.555556 0 0.444444 0.666667 0 0.444444 
          0.777778 0 0.444444 0.888889 0 0.444444 1 0 0.444444 
          0.555556 0.111111 0.444444 0.666667 0.111111 0.444444 0.777778 0.111111 0.444444 
          0.888889 0.111111 0.444444 1 0.111111 0.444444 0.555556 0.222222 0.444444 
          0.666667 0.222222 0.444444 0.777778 0.222222 0.444444 0.888889 0.222222 0.444444 
          1 0.222222 0.444444 0.555556 0.333333 0.444444 0.666667 0.333333 0.444444 
          0.777778 0.333333 0.444444 0.888889 0.333333 0.444444 1 0.333333 0.444444 
          0.555556 0.444444 0.444444 0.666667 0.444444 0.444444 0.777778 0.444444 0.444444 
          0.888889 0.444444 0.444444 1 0.444444 0.444444 0.555556 0 0.555556 
          0.666667 0 0.555556 0.777778 0 0.555556 0.888889 0 0.555556 
          1 0 0.555556 0.555556 0.111111 0.555556 0.666667 0.111111 0.555556 
          0.777778 0.111111 0.555556 0.888889 0.111111 0.555556 1 0.111111 0.555556 
          0.555556 0.222222 0.555556 0.666667 0.222222 0.555556 0.777778 0.222222 0.555556 
          0.888889 0.222222 0.555556 1 0.222222 0.555556 0.555556 0.333333 0.555556 
          0.666667 0.333333 0.555556 0.777778 0.333333 0.555556 0.888889 0.333333 0.555556 
          1 0.333333 0.555556 0.555556 0.444444 0.555556 0.666667 0.444444 0.555556 
          0.777778 0.444444 0.555556 0.888889 0.444444 0.555556 1 0.444444 0.555556 
          0.555556 0 0.666667 0.666667 0 0.666667 0.777778 0 0.666667 
          0.888889 0 0.666667 1 0 0.666667 0.555556 0.111111 0.666667 
          0.666667 0.111111 0.666667 0.777778 0.111111 0.666667 0.888889 0.111111 0.666667 
          1 0.111111 0.666667 0.555556 0.222222 0.666667 0.666667 0.222222 0.666667 
          0.777778 0.222222 0.666667 0.888889 0.222222 0.666667 1 0.222222 0.666667 
          0.555556 0.333333 0.666667 0.666667 0.333333 0.666667 0.777778 0.333333 0.666667 
          0.888889 0.333333 0.666667 1 0.333333 0.666667 0.555556 0.444444 0.666667 
          0.666667 0.444444 0.666667 0.777778 0.444444 0.666667 0.888889 0.444444 0.666667 
          1 0.444444 0.666667 0.555556 0 0.777778 0.666667 0 0.777778 
          0.777778 0 0.777778 0.888889 0 0.777778 1 0 0.777778 
          0.555556 0.111111 0.777778 0.666667 0.111111 0.777778 0.777778 0.111111 0.777778 
          0.888889 0.111111 0.777778 1 0.111111 0.777778 0.555556 0.222222 0.777778 
          0.666667 0.222222 0.777778 0.777778 0.222222 0.777778 0.888889 0.222222 0.777778 
          1 0.222222 0.777778 0.555556 0.333333 0.777778 0.666667 0.333333 0.777778 
          0.777778 0.333333 0.777778 0.888889 0.333333 0.777778 1 0.333333 0.777778 
          0.555556 0.444444 0.777778 0.666667 0.444444 0.777778 0.777778 0.444444 0.777778 
          0.888889 0.444444 0.777778 1 0.444444 0.777778 0.555556 0 0.888889 
          0.666667 0 0.888889 0.777778 0 0.888889 0.888889 0 0.888889 
          1 0 0.888889 0.555556 0.111111 0.888889 0.666667 0.111111 0.888889 
          0.777778 0.111111 0.888889 0.888889 0.111111 0.888889 1 0.111111 0.888889 
          0.555556 0.222222 0.888889 0.666667 0.222222 0.888889 0.777778 0.222222 0.888889 
          0.888889 0.222222 0.888889 1 0.222222 0.888889 0.555556 0.333333 0.888889 
          0.666667 0.333333 0.888889 0.777778 0.333333 0.888889 0.888889 0.333333 0.888889 
          1 0.333333 0.888889 0.555556 0.444444 0.888889 0.666667 0.444444 0.888889 
          0.777778 0.444444 0.888889 0.888889 0.444444 0.888889 1 0.444444 0.888889 
          0.555556 0 1 0.666667 0 1 0.777778 0 1 
          0.888889 0 1 1 0 1 0.555556 0.111111 1 
          0.666667 0.111111 1 0.777778 0.111111 1 0.888889 0.111111 1 
          1 0.111111 1 0.555556 0.222222 1 0.666667 0.222222 1 
          0.777778 0.222222 1 0.888889 0.222222 1 1 0.222222 1 
          0.555556 0.333333 1 0.666667 0.333333 1 0.777778 0.333333 1 
          0.888889 0.333333 1 1 0.333333 1 0.555556 0.444444 1 
          0.666667 0.444444 1 0.777778 0.444444 1 0.888889 0.444444 1 
          1 0.444444 1 
        </DataArray>
      </Points>
      <Cells>
        <DataArray type="Int32" Name="connectivity" format="ascii">
          0 1 2 3 4 5 6 7 8 9 
          10 11 12 13 14 15 16 17 18 19 
          20 21 22 23 24 25 26 27 28 29 
          30 31 32 33 34 35 36 37 38 39 
          40 41 42 43 44 45 46 47 48 49 
          50 51 52 53 54 55 56 57 58 59 
          60 61 62 63 64 65 66 67 68 69 
          70 71 72 73 74 75 76 77 78 79 
          80 81 82 83 84 85 86 87 88 89 
          90 91 92 93 94 95 96 97 98 99 
          100 101 102 103 104 105 106 107 108 109 
          110 111 112 113 114 115 116 117 118 119 
          120 121 122 123 124 125 126 127 128 129 
          130 131 132 133 134 135 136 137 138 139 
          140 141 142 143 144 145 146 147 148 149 
          150 151 152 153 154 155 156 157 158 159 
          160 161 162 163 164 165 166 167 168 169 
          170 171 172 173 174 175 176 177 178 179 
          180 181 182 183 184 185 186 187 188 189 
          190 191 192 193 194 195 196 197 198 199 
          200 201 202 203 204 205 206 207 208 209 
          210 211 212 213 214 215 216 217 218 219 
          220 221 222 223 224 225 226 227 228 229 
          230 231 232 233 234 235 236 237 238 239 
          240 241 242 243 244 245 246 247 248 249 
          
        </DataArray>
        <DataArray type="Int32" Name="offsets" format="ascii">
          1 2 3 4 5 6 7 8 9 10 
          11 12 13 14 15 16 17 18 19 20 
          21 22 23 24 25 26 27 28 29 30 
          31 32 33 34 35 36 37 38 39 40 
          41 42 43 44 45 46 47 48 49 50 
          51 52 53 54 55 56 57 58 59 60 
          61 62 63 64 65 66 67 68 69 70 
          71 72 73 74 75 76 77 78 79 80 
          81 82 83 84 85 86 87 88 89 90 
          91 92 93 94 95 96 97 98 99 100 
          101 102 103 104 105 106 107 108 109 110 
          111 112 113 114 115 116 117 118 119 120 
          121 122 123 124 125 126 127 128 129 130 
          131 132 133 134 135 136 137 138 139 140 
          141 142 143 144 145 146 147 148 149 150 
          151 152 153 154 155 156 157 158 159 160 
          161 162 163 164 165 166 167 168 169 170 
          171 172 173 174 175 176 177 178 179 180 
          181 182 183 184 185 186 187 188 189 190 
          191 192 193 194 195 196 197 198 199 200 
          201 202 203 204 205 206 207 208 209 210 
          211 212 213 214 215 216 217 218 219 220 
          221 222 223 224 225 226 227 228 229 230 
          231 232 233 234 235 236 237 238 239 240 
          241 242 243 244 245 246 247 248 249 250 
          
        </DataArray>
        <DataArray type="Int32" Name="types" format="ascii">
          1 1 1 1 1 1 1 1 1 1 1 1 1 1 1 1 1 1 1 1 1 1 1 1 1 1 1 1 1 1 
          1 1 1 1 1 1 1 1 1 1 1 1 1 1 1 1 1 1 1 1 1 1 1 1 1 1 1 1 1 1 
          1 1 1 1 1 1 1 1 1 1 1 1 1 1 1 1 1 1 1 1 1 1 1 1 1 1 1 1 1 1 
          1 1 1 1 1 1 1 1 1 1 1 1 1 1 1 1 1 1 1 1 1 1 1 1 1 1 1 1 1 1 
          1 1 1 1 1 1 1 1 1 1 1 1 1 1 1 1 1 1 1 1 1 1 1 1 1 1 1 1 1 1 
          1 1 1 1 1 1 1 1 1 1 1 1 1 1 1 1 1 1 1 1 1 1 1 1 1 1 1 1 1 1 
          1 1 1 1 1 1 1 1 1 1 1 1 1 1 1 1 1 1 1 1 1 1 1 1 1 1 1 1 1 1 
          1 1 1 1 1 1 1 1 1 1 1 1 1 1 1 1 1 1 1 1 1 1 1 1 1 1 1 1 1 1 
          1 1 1 1 1 1 1 1 1 1 
        </DataArray>
      </Cells>
    </Piece>
  </UnstructuredGrid>
</VTKFile>
