<!--Point Cloud Aggregates Visualization-->
<VTKFile type="UnstructuredGrid" byte_order="LittleEndian">
  <UnstructuredGrid>
    <Piece NumberOfPoints="250" NumberOfCells="250">
      <PointData Scalars="Node Aggregate Processor">
        <DataArray type="Int32" Name="Node" format="ascii">
          165 166 167 168 169 170 171 172 173 174 
          175 176 177 178 179 195 196 197 198 199 
          200 201 202 203 204 205 206 207 208 209 
          225 226 227 228 229 230 231 232 233 234 
          235 236 237 238 239 255 256 257 258 259 
          260 261 262 263 264 265 266 267 268 269 
          285 286 287 288 289 290 291 292 293 294 
          295 296 297 298 299 465 466 467 468 469 
          470 471 472 473 474 475 476 477 478 479 
          495 496 497 498 499 500 501 502 503 504 
          505 506 507 508 509 525 526 527 528 529 
          530 531 532 533 534 535 536 537 538 539 
          555 556 557 558 559 560 561 562 563 564 
          565 566 567 568 569 585 586 587 588 589 
          590 591 592 593 594 595 596 597 598 599 
          765 766 767 768 769 770 771 772 773 774 
          775 776 777 778 779 795 796 797 798 799 
          800 801 802 803 804 805 806 807 808 809 
          825 826 827 828 829 830 831 832 833 834 
          835 836 837 838 839 855 856 857 858 859 
          860 861 862 863 864 865 866 867 868 869 
          885 886 887 888 889 890 891 892 893 894 
          895 896 897 898 899 1065 1066 1067 1068 1069 
          1070 1071 1072 1073 1074 1075 1076 1077 1078 1079 
          1095 1096 1097 1098 1099 1100 1101 1102 1103 1104 
          
        </DataArray>
        <DataArray type="Int32" Name="Aggregate" format="ascii">
          48 48 49 49 49 48 48 49 49 49 
          50 50 51 51 51 50 50 51 51 51 
          50 50 51 51 51 48 48 49 49 49 
          48 48 49 49 49 50 50 51 51 51 
          50 50 51 51 51 50 50 51 51 51 
          52 52 53 53 53 52 52 53 53 53 
          54 54 55 55 55 54 54 55 55 55 
          54 54 55 55 55 52 52 53 53 53 
          52 52 53 53 53 54 54 55 55 55 
          54 54 55 55 55 54 54 55 55 55 
          52 52 53 53 53 52 52 53 53 53 
          54 54 55 55 55 54 54 55 55 55 
          54 54 55 55 55 56 56 57 57 57 
          56 56 57 57 57 58 58 59 59 59 
          58 58 59 59 59 58 58 59 59 59 
          56 56 57 57 57 56 56 57 57 57 
          58 58 59 59 59 58 58 59 59 59 
          58 58 59 59 59 56 56 57 57 57 
          56 56 57 57 57 58 58 59 59 59 
          58 58 59 59 59 58 58 59 59 59 
          60 60 61 61 61 60 60 61 61 61 
          62 62 63 63 63 62 62 63 63 63 
          62 62 63 63 63 60 60 61 61 61 
          60 60 61 61 61 62 62 63 63 63 
          62 62 63 63 63 62 62 63 63 63 
          
        </DataArray>
        <DataArray type="Int32" Name="Processor" format="ascii">
          3 3 3 3 3 3 3 3 3 3 3 3 3 3 3 3 3 3 3 3 
          3 3 3 3 3 3 3 3 3 3 3 3 3 3 3 3 3 3 3 3 
          3 3 3 3 3 3 3 3 3 3 3 3 3 3 3 3 3 3 3 3 
          3 3 3 3 3 3 3 3 3 3 3 3 3 3 3 3 3 3 3 3 
          3 3 3 3 3 3 3 3 3 3 3 3 3 3 3 3 3 3 3 3 
          3 3 3 3 3 3 3 3 3 3 3 3 3 3 3 3 3 3 3 3 
          3 3 3 3 3 3 3 3 3 3 3 3 3 3 3 3 3 3 3 3 
          3 3 3 3 3 3 3 3 3 3 3 3 3 3 3 3 3 3 3 3 
          3 3 3 3 3 3 3 3 3 3 3 3 3 3 3 3 3 3 3 3 
          3 3 3 3 3 3 3 3 3 3 3 3 3 3 3 3 3 3 3 3 
          3 3 3 3 3 3 3 3 3 3 3 3 3 3 3 3 3 3 3 3 
          3 3 3 3 3 3 3 3 3 3 3 3 3 3 3 3 3 3 3 3 
          3 3 3 3 3 3 3 3 3 3 
        </DataArray>
      </PointData>
      <Points>
        <DataArray type="Float64" NumberOfComponents="3" format="ascii">
          0.555556 0.555556 0 0.666667 0.555556 0 0.777778 0.555556 0 
          0.888889 0.555556 0 1 0.555556 0 0.555556 0.666667 0 
          0.666667 0.666667 0 0.777778 0.666667 0 0.888889 0.666667 0 
          1 0.666667 0 0.555556 0.777778 0 0.666667 0.777778 0 
          0.777778 0.777778 0 0.888889 0.777778 0 1 0.777778 0 
          0.555556 0.888889 0 0.666667 0.888889 0 0.777778 0.888889 0 
          0.888889 0.888889 0 1 0.888889 0 0.555556 1 0 
          0.666667 1 0 0.777778 1 0 0.888889 1 0 
          1 1 0 0.555556 0.555556 0.111111 0.666667 0.555556 0.111111 
          0.777778 0.555556 0.111111 0.888889 0.555556 0.111111 1 0.555556 0.111111 
          0.555556 0.666667 0.111111 0.666667 0.666667 0.111111 0.777778 0.666667 0.111111 
          0.888889 0.666667 0.111111 1 0.666667 0.111111 0.555556 0.777778 0.111111 
          0.666667 0.777778 0.111111 0.777778 0.777778 0.111111 0.888889 0.777778 0.111111 
          1 0.777778 0.111111 0.555556 0.888889 0.111111 0.666667 0.888889 0.111111 
          0.777778 0.888889 0.111111 0.888889 0.888889 0.111111 1 0.888889 0.111111 
          0.555556 1 0.111111 0.666667 1 0.111111 0.777778 1 0.111111 
          0.888889 1 0.111111 1 1 0.111111 0.555556 0.555556 0.222222 
          0.666667 0.555556 0.222222 0.777778 0.555556 0.222222 0.888889 0.555556 0.222222 
          1 0.555556 0.222222 0.555556 0.666667 0.222222 0.666667 0.666667 0.222222 
          0.777778 0.666667 0.222222 0.888889 0.666667 0.222222 1 0.666667 0.222222 
          0.555556 0.777778 0.222222 0.666667 0.777778 0.222222 0.777778 0.777778 0.222222 
          0.888889 0.777778 0.222222 1 0.777778 0.222222 0.555556 0.888889 0.222222 
          0.666667 0.888889 0.222222 0.777778 0.888889 0.222222 0.888889 0.888889 0.222222 
          1 0.888889 0.222222 0.555556 1 0.222222 0.666667 1 0.222222 
          0.777778 1 0.222222 0.888889 1 0.222222 1 1 0.222222 
          0.555556 0.555556 0.333333 0.666667 0.555556 0.333333 0.777778 0.555556 0.333333 
          0.888889 0.555556 0.333333 1 0.555556 0.333333 0.555556 0.666667 0.333333 
          0.666667 0.666667 0.333333 0.777778 0.666667 0.333333 0.888889 0.666667 0.333333 
          1 0.666667 0.333333 0.555556 0.777778 0.333333 0.666667 0.777778 0.333333 
          0.777778 0.777778 0.333333 0.888889 0.777778 0.333333 1 0.777778 0.333333 
          0.555556 0.888889 0.333333 0.666667 0.888889 0.333333 0.777778 0.888889 0.333333 
          0.888889 0.888889 0.333333 1 0.888889 0.333333 0.555556 1 0.333333 
          0.666667 1 0.333333 0.777778 1 0.333333 0.888889 1 0.333333 
          1 1 0.333333 0.555556 0.555556 0.444444 0.666667 0.555556 0.444444 
          0.777778 0.555556 0.444444 0.888889 0.555556 0.444444 1 0.555556 0.444444 
          0.555556 0.666667 0.444444 0.666667 0.666667 0.444444 0.777778 0.666667 0.444444 
          0.888889 0.666667 0.444444 1 0.666667 0.444444 0.555556 0.777778 0.444444 
          0.666667 0.777778 0.444444 0.777778 0.777778 0.444444 0.888889 0.777778 0.444444 
          1 0.777778 0.444444 0.555556 0.888889 0.444444 0.666667 0.888889 0.444444 
          0.777778 0.888889 0.444444 0.888889 0.888889 0.444444 1 0.888889 0.444444 
          0.555556 1 0.444444 0.666667 1 0.444444 0.777778 1 0.444444 
          0.888889 1 0.444444 1 1 0.444444 0.555556 0.555556 0.555556 
          0.666667 0.555556 0.555556 0.777778 0.555556 0.555556 0.888889 0.555556 0.555556 
          1 0.555556 0.555556 0.555556 0.666667 0.555556 0.666667 0.666667 0.555556 
          0.777778 0.666667 0.555556 0.888889 0.666667 0.555556 1 0.666667 0.555556 
          0.555556 0.777778 0.555556 0.666667 0.777778 0.555556 0.777778 0.777778 0.555556 
          0.888889 0.777778 0.555556 1 0.777778 0.555556 0.555556 0.888889 0.555556 
          0.666667 0.888889 0.555556 0.777778 0.888889 0.555556 0.888889 0.888889 0.555556 
          1 0.888889 0.555556 0.555556 1 0.555556 0.666667 1 0.555556 
          0.777778 1 0.555556 0.888889 1 0.555556 1 1 0.555556 
          0.555556 0.555556 0.666667 0.666667 0.555556 0.666667 0.777778 0.555556 0.666667 
          0.888889 0.555556 0.666667 1 0.555556 0.666667 0.555556 0.666667 0.666667 
          0.666667 0.666667 0.666667 0.777778 0.666667 0.666667 0.888889 0.666667 0.666667 
          1 0.666667 0.666667 0.555556 0.777778 0.666667 0.666667 0.777778 0.666667 
          0.777778 0.777778 0.666667 0.888889 0.777778 0.666667 1 0.777778 0.666667 
          0.555556 0.888889 0.666667 0.666667 0.888889 0.666667 0.777778 0.888889 0.666667 
          0.888889 0.888889 0.666667 1 0.888889 0.666667 0.555556 1 0.666667 
          0.666667 1 0.666667 0.777778 1 0.666667 0.888889 1 0.666667 
          1 1 0.666667 0.555556 0.555556 0.777778 0.666667 0.555556 0.777778 
          0.777778 0.555556 0.777778 0.888889 0.555556 0.777778 1 0.555556 0.777778 
          0.555556 0.666667 0.777778 0.666667 0.666667 0.777778 0.777778 0.666667 0.777778 
          0.888889 0.666667 0.777778 1 0.666667 0.777778 0.555556 0.777778 0.777778 
          0.666667 0.777778 0.777778 0.777778 0.777778 0.777778 0.888889 0.777778 0.777778 
          1 0.777778 0.777778 0.555556 0.888889 0.777778 0.666667 0.888889 0.777778 
          0.777778 0.888889 0.777778 0.888889 0.888889 0.777778 1 0.888889 0.777778 
          0.555556 1 0.777778 0.666667 1 0.777778 0.777778 1 0.777778 
          0.888889 1 0.777778 1 1 0.777778 0.555556 0.555556 0.888889 
          0.666667 0.555556 0.888889 0.777778 0.555556 0.888889 0.888889 0.555556 0.888889 
          1 0.555556 0.888889 0.555556 0.666667 0.888889 0.666667 0.666667 0.888889 
          0.777778 0.666667 0.888889 0.888889 0.666667 0.888889 1 0.666667 0.888889 
          0.555556 0.777778 0.888889 0.666667 0.777778 0.888889 0.777778 0.777778 0.888889 
          0.888889 0.777778 0.888889 1 0.777778 0.888889 0.555556 0.888889 0.888889 
          0.666667 0.888889 0.888889 0.777778 0.888889 0.888889 0.888889 0.888889 0.888889 
          1 0.888889 0.888889 0.555556 1 0.888889 0.666667 1 0.888889 
          0.777778 1 0.888889 0.888889 1 0.888889 1 1 0.888889 
          0.555556 0.555556 1 0.666667 0.555556 1 0.777778 0.555556 1 
          0.888889 0.555556 1 1 0.555556 1 0.555556 0.666667 1 
          0.666667 0.666667 1 0.777778 0.666667 1 0.888889 0.666667 1 
          1 0.666667 1 0.555556 0.777778 1 0.666667 0.777778 1 
          0.777778 0.777778 1 0.888889 0.777778 1 1 0.777778 1 
          0.555556 0.888889 1 0.666667 0.888889 1 0.777778 0.888889 1 
          0.888889 0.888889 1 1 0.888889 1 0.555556 1 1 
          0.666667 1 1 0.777778 1 1 0.888889 1 1 
          1 1 1 
        </DataArray>
      </Points>
      <Cells>
        <DataArray type="Int32" Name="connectivity" format="ascii">
          0 1 2 3 4 5 6 7 8 9 
          10 11 12 13 14 15 16 17 18 19 
          20 21 22 23 24 25 26 27 28 29 
          30 31 32 33 34 35 36 37 38 39 
          40 41 42 43 44 45 46 47 48 49 
          50 51 52 53 54 55 56 57 58 59 
          60 61 62 63 64 65 66 67 68 69 
          70 71 72 73 74 75 76 77 78 79 
          80 81 82 83 84 85 86 87 88 89 
          90 91 92 93 94 95 96 97 98 99 
          100 101 102 103 104 105 106 107 108 109 
          110 111 112 113 114 115 116 117 118 119 
          120 121 122 123 124 125 126 127 128 129 
          130 131 132 133 134 135 136 137 138 139 
          140 141 142 143 144 145 146 147 148 149 
          150 151 152 153 154 155 156 157 158 159 
          160 161 162 163 164 165 166 167 168 169 
          170 171 172 173 174 175 176 177 178 179 
          180 181 182 183 184 185 186 187 188 189 
          190 191 192 193 194 195 196 197 198 199 
          200 201 202 203 204 205 206 207 208 209 
          210 211 212 213 214 215 216 217 218 219 
          220 221 222 223 224 225 226 227 228 229 
          230 231 232 233 234 235 236 237 238 239 
          240 241 242 243 244 245 246 247 248 249 
          
        </DataArray>
        <DataArray type="Int32" Name="offsets" format="ascii">
          1 2 3 4 5 6 7 8 9 10 
          11 12 13 14 15 16 17 18 19 20 
          21 22 23 24 25 26 27 28 29 30 
          31 32 33 34 35 36 37 38 39 40 
          41 42 43 44 45 46 47 48 49 50 
          51 52 53 54 55 56 57 58 59 60 
          61 62 63 64 65 66 67 68 69 70 
          71 72 73 74 75 76 77 78 79 80 
          81 82 83 84 85 86 87 88 89 90 
          91 92 93 94 95 96 97 98 99 100 
          101 102 103 104 105 106 107 108 109 110 
          111 112 113 114 115 116 117 118 119 120 
          121 122 123 124 125 126 127 128 129 130 
          131 132 133 134 135 136 137 138 139 140 
          141 142 143 144 145 146 147 148 149 150 
          151 152 153 154 155 156 157 158 159 160 
          161 162 163 164 165 166 167 168 169 170 
          171 172 173 174 175 176 177 178 179 180 
          181 182 183 184 185 186 187 188 189 190 
          191 192 193 194 195 196 197 198 199 200 
          201 202 203 204 205 206 207 208 209 210 
          211 212 213 214 215 216 217 218 219 220 
          221 222 223 224 225 226 227 228 229 230 
          231 232 233 234 235 236 237 238 239 240 
          241 242 243 244 245 246 247 248 249 250 
          
        </DataArray>
        <DataArray type="Int32" Name="types" format="ascii">
          1 1 1 1 1 1 1 1 1 1 1 1 1 1 1 1 1 1 1 1 1 1 1 1 1 1 1 1 1 1 
          1 1 1 1 1 1 1 1 1 1 1 1 1 1 1 1 1 1 1 1 1 1 1 1 1 1 1 1 1 1 
          1 1 1 1 1 1 1 1 1 1 1 1 1 1 1 1 1 1 1 1 1 1 1 1 1 1 1 1 1 1 
          1 1 1 1 1 1 1 1 1 1 1 1 1 1 1 1 1 1 1 1 1 1 1 1 1 1 1 1 1 1 
          1 1 1 1 1 1 1 1 1 1 1 1 1 1 1 1 1 1 1 1 1 1 1 1 1 1 1 1 1 1 
          1 1 1 1 1 1 1 1 1 1 1 1 1 1 1 1 1 1 1 1 1 1 1 1 1 1 1 1 1 1 
          1 1 1 1 1 1 1 1 1 1 1 1 1 1 1 1 1 1 1 1 1 1 1 1 1 1 1 1 1 1 
          1 1 1 1 1 1 1 1 1 1 1 1 1 1 1 1 1 1 1 1 1 1 1 1 1 1 1 1 1 1 
          1 1 1 1 1 1 1 1 1 1 
        </DataArray>
      </Cells>
    </Piece>
  </UnstructuredGrid>
</VTKFile>
