<!--Convex Hulls Aggregates Visualization-->
<VTKFile type="UnstructuredGrid" byte_order="LittleEndian">
  <UnstructuredGrid>
    <Piece NumberOfPoints="164" NumberOfCells="264">
      <PointData Scalars="Node Aggregate Processor">
        <DataArray type="Int32" Name="Node" format="ascii">
          150 151 152 154 155 156 157 159 160 161 
          162 164 185 186 187 189 190 191 192 193 
          194 210 211 212 213 214 215 216 217 218 
          219 220 221 224 240 241 242 243 244 245 
          246 247 249 250 251 252 254 270 271 272 
          274 280 281 282 284 455 459 486 489 490 
          491 492 493 494 510 511 512 513 514 515 
          516 517 519 520 521 522 524 540 541 542 
          543 544 545 546 547 549 550 551 552 554 
          570 571 572 574 580 581 582 584 755 759 
          786 789 790 791 792 793 794 810 811 812 
          813 814 815 816 817 819 820 821 822 824 
          840 841 842 843 844 845 846 847 849 850 
          851 852 853 854 870 871 872 874 876 880 
          881 882 884 1050 1051 1052 1054 1055 1056 1057 
          1058 1059 1060 1061 1062 1063 1064 1081 1084 1085 
          1086 1087 1088 1089 
        </DataArray>
        <DataArray type="Int32" Name="Aggregate" format="ascii">
          32 32 33 33 32 32 33 33 34 34 
          35 35 34 34 35 35 32 32 33 33 
          33 32 32 33 33 33 34 34 35 35 
          35 34 34 35 34 34 35 35 35 36 
          36 37 37 36 36 37 37 38 38 39 
          39 38 38 39 39 36 37 38 39 36 
          36 37 37 37 36 36 37 37 37 38 
          38 39 39 38 38 39 39 38 38 39 
          39 39 40 40 41 41 40 40 41 41 
          42 42 43 43 42 42 43 43 40 41 
          42 43 40 40 41 41 41 40 40 41 
          41 41 42 42 43 43 42 42 43 43 
          42 42 43 43 43 44 44 45 45 44 
          44 45 45 45 46 46 47 47 46 46 
          46 47 47 44 44 45 45 44 44 45 
          45 45 46 46 47 47 47 46 47 46 
          46 47 47 47 
        </DataArray>
        <DataArray type="Int32" Name="Processor" format="ascii">
          2 2 2 2 2 2 2 2 2 2 2 2 2 2 2 2 2 2 2 2 
          2 2 2 2 2 2 2 2 2 2 2 2 2 2 2 2 2 2 2 2 
          2 2 2 2 2 2 2 2 2 2 2 2 2 2 2 2 2 2 2 2 
          2 2 2 2 2 2 2 2 2 2 2 2 2 2 2 2 2 2 2 2 
          2 2 2 2 2 2 2 2 2 2 2 2 2 2 2 2 2 2 2 2 
          2 2 2 2 2 2 2 2 2 2 2 2 2 2 2 2 2 2 2 2 
          2 2 2 2 2 2 2 2 2 2 2 2 2 2 2 2 2 2 2 2 
          2 2 2 2 2 2 2 2 2 2 2 2 2 2 2 2 2 2 2 2 
          2 2 2 2 
        </DataArray>
      </PointData>
      <Points>
        <DataArray type="Float64" NumberOfComponents="3" format="ascii">
          0 0.555556 0 0.111111 0.555556 0 0.222222 0.555556 0 
          0.444444 0.555556 0 0 0.666667 0 0.111111 0.666667 0 
          0.222222 0.666667 0 0.444444 0.666667 0 0 0.777778 0 
          0.111111 0.777778 0 0.222222 0.777778 0 0.444444 0.777778 0 
          0 1 0 0.111111 1 0 0.222222 1 0 
          0.444444 1 0 0 0.555556 0.111111 0.111111 0.555556 0.111111 
          0.222222 0.555556 0.111111 0.333333 0.555556 0.111111 0.444444 0.555556 0.111111 
          0 0.666667 0.111111 0.111111 0.666667 0.111111 0.222222 0.666667 0.111111 
          0.333333 0.666667 0.111111 0.444444 0.666667 0.111111 0 0.777778 0.111111 
          0.111111 0.777778 0.111111 0.222222 0.777778 0.111111 0.333333 0.777778 0.111111 
          0.444444 0.777778 0.111111 0 0.888889 0.111111 0.111111 0.888889 0.111111 
          0.444444 0.888889 0.111111 0 1 0.111111 0.111111 1 0.111111 
          0.222222 1 0.111111 0.333333 1 0.111111 0.444444 1 0.111111 
          0 0.555556 0.222222 0.111111 0.555556 0.222222 0.222222 0.555556 0.222222 
          0.444444 0.555556 0.222222 0 0.666667 0.222222 0.111111 0.666667 0.222222 
          0.222222 0.666667 0.222222 0.444444 0.666667 0.222222 0 0.777778 0.222222 
          0.111111 0.777778 0.222222 0.222222 0.777778 0.222222 0.444444 0.777778 0.222222 
          0 1 0.222222 0.111111 1 0.222222 0.222222 1 0.222222 
          0.444444 1 0.222222 0 0.666667 0.333333 0.444444 0.666667 0.333333 
          0.111111 1 0.333333 0.444444 1 0.333333 0 0.555556 0.444444 
          0.111111 0.555556 0.444444 0.222222 0.555556 0.444444 0.333333 0.555556 0.444444 
          0.444444 0.555556 0.444444 0 0.666667 0.444444 0.111111 0.666667 0.444444 
          0.222222 0.666667 0.444444 0.333333 0.666667 0.444444 0.444444 0.666667 0.444444 
          0 0.777778 0.444444 0.111111 0.777778 0.444444 0.222222 0.777778 0.444444 
          0.444444 0.777778 0.444444 0 0.888889 0.444444 0.111111 0.888889 0.444444 
          0.222222 0.888889 0.444444 0.444444 0.888889 0.444444 0 1 0.444444 
          0.111111 1 0.444444 0.222222 1 0.444444 0.333333 1 0.444444 
          0.444444 1 0.444444 0 0.555556 0.555556 0.111111 0.555556 0.555556 
          0.222222 0.555556 0.555556 0.444444 0.555556 0.555556 0 0.666667 0.555556 
          0.111111 0.666667 0.555556 0.222222 0.666667 0.555556 0.444444 0.666667 0.555556 
          0 0.777778 0.555556 0.111111 0.777778 0.555556 0.222222 0.777778 0.555556 
          0.444444 0.777778 0.555556 0 1 0.555556 0.111111 1 0.555556 
          0.222222 1 0.555556 0.444444 1 0.555556 0 0.666667 0.666667 
          0.444444 0.666667 0.666667 0.111111 1 0.666667 0.444444 1 0.666667 
          0 0.555556 0.777778 0.111111 0.555556 0.777778 0.222222 0.555556 0.777778 
          0.333333 0.555556 0.777778 0.444444 0.555556 0.777778 0 0.666667 0.777778 
          0.111111 0.666667 0.777778 0.222222 0.666667 0.777778 0.333333 0.666667 0.777778 
          0.444444 0.666667 0.777778 0 0.777778 0.777778 0.111111 0.777778 0.777778 
          0.222222 0.777778 0.777778 0.444444 0.777778 0.777778 0 0.888889 0.777778 
          0.111111 0.888889 0.777778 0.222222 0.888889 0.777778 0.444444 0.888889 0.777778 
          0 1 0.777778 0.111111 1 0.777778 0.222222 1 0.777778 
          0.333333 1 0.777778 0.444444 1 0.777778 0 0.555556 0.888889 
          0.111111 0.555556 0.888889 0.222222 0.555556 0.888889 0.444444 0.555556 0.888889 
          0 0.666667 0.888889 0.111111 0.666667 0.888889 0.222222 0.666667 0.888889 
          0.333333 0.666667 0.888889 0.444444 0.666667 0.888889 0 0.777778 0.888889 
          0.111111 0.777778 0.888889 0.222222 0.777778 0.888889 0.444444 0.777778 0.888889 
          0.111111 0.888889 0.888889 0 1 0.888889 0.111111 1 0.888889 
          0.222222 1 0.888889 0.444444 1 0.888889 0 0.555556 1 
          0.111111 0.555556 1 0.222222 0.555556 1 0.444444 0.555556 1 
          0 0.666667 1 0.111111 0.666667 1 0.222222 0.666667 1 
          0.333333 0.666667 1 0.444444 0.666667 1 0 0.777778 1 
          0.111111 0.777778 1 0.222222 0.777778 1 0.333333 0.777778 1 
          0.444444 0.777778 1 0.111111 0.888889 1 0.444444 0.888889 1 
          0 1 1 0.111111 1 1 0.222222 1 1 
          0.333333 1 1 0.444444 1 1 
        </DataArray>
      </Points>
      <Cells>
        <DataArray type="Int32" Name="connectivity" format="ascii">
          0 4 1 0 1 17 1 22 17 4 
          0 16 0 17 16 17 22 16 1 4 
          5 22 1 5 4 22 5 4 16 21 
          22 4 21 16 22 21 2 6 3 2 
          3 20 3 25 20 2 20 19 20 25 
          19 6 2 18 2 19 18 19 25 18 
          3 6 7 25 3 7 6 25 7 25 
          6 24 18 25 24 6 18 23 24 6 
          23 18 24 23 9 8 12 12 8 34 
          35 12 34 34 8 31 35 34 31 8 
          9 26 31 8 26 35 31 26 9 12 
          13 35 9 13 12 35 13 9 35 32 
          35 26 32 26 9 27 9 32 27 32 
          26 27 10 14 11 11 38 33 10 11 
          30 11 33 30 10 30 29 30 33 29 
          33 38 29 14 10 28 10 29 28 29 
          38 28 11 14 15 38 11 15 14 38 
          15 38 14 37 28 38 37 14 28 36 
          37 14 36 28 37 36 65 40 44 40 
          39 44 65 44 64 39 64 55 64 44 
          55 44 39 43 39 55 43 55 44 43 
          39 40 60 40 65 60 65 64 60 39 
          60 59 64 39 59 60 64 59 41 45 
          42 41 42 63 42 68 63 41 63 62 
          63 68 62 45 41 61 41 62 61 62 
          68 61 68 42 56 45 68 56 42 45 
          46 56 42 46 45 56 46 68 45 67 
          61 68 67 45 61 66 67 45 66 61 
          67 66 48 47 51 51 47 77 78 51 
          77 77 47 73 78 77 73 47 48 69 
          73 47 69 78 73 69 78 48 57 51 
          78 57 48 51 52 57 48 52 51 57 
          52 48 78 74 78 69 74 69 48 70 
          48 74 70 74 69 70 50 49 53 81 
          53 80 53 49 79 80 53 79 79 49 
          75 80 79 75 81 80 75 49 50 71 
          75 49 71 81 75 71 81 50 58 53 
          81 58 50 53 54 58 50 54 53 58 
          54 50 81 76 81 71 76 71 50 72 
          50 76 72 76 71 72 108 83 87 83 
          82 87 108 87 107 82 107 98 107 87 
          98 87 82 86 82 98 86 98 87 86 
          82 83 103 83 108 103 108 107 103 82 
          103 102 107 82 102 103 107 102 84 88 
          85 84 85 106 85 111 106 84 106 105 
          106 111 105 88 84 104 84 105 104 105 
          111 104 111 85 99 88 111 99 85 88 
          89 99 85 89 88 99 89 111 88 110 
          104 111 110 88 104 109 110 88 109 104 
          110 109 91 90 94 94 90 120 121 94 
          120 120 90 116 121 120 116 90 91 112 
          116 90 112 121 116 112 121 91 100 94 
          121 100 91 94 95 100 91 95 94 100 
          95 91 121 117 121 112 117 112 91 113 
          91 117 113 117 112 113 93 92 96 124 
          96 123 96 92 122 123 96 122 122 92 
          118 123 122 118 124 123 118 92 93 114 
          118 92 114 124 118 114 124 93 101 96 
          124 101 93 96 97 101 93 97 96 101 
          97 93 124 119 124 114 119 114 93 115 
          93 119 115 119 114 115 148 126 130 126 
          125 130 148 130 147 130 125 129 125 147 
          129 147 130 129 125 126 144 126 148 144 
          148 147 144 125 144 143 147 125 143 144 
          147 143 145 127 128 128 127 133 151 128 
          133 133 127 132 151 133 132 132 127 131 
          127 145 131 151 132 131 145 128 146 128 
          151 146 151 145 146 151 131 150 145 151 
          150 131 145 149 150 131 149 145 150 149 
          134 152 139 134 139 140 139 160 140 134 
          140 138 140 160 138 134 138 135 152 134 
          135 138 160 135 139 152 159 160 139 159 
          152 160 159 135 160 157 160 152 157 152 
          135 153 135 157 153 157 152 153 136 141 
          137 137 163 158 136 137 156 137 158 156 
          136 156 155 156 158 155 158 163 155 141 
          136 154 136 155 154 155 163 154 137 141 
          142 163 137 142 141 163 142 163 141 162 
          154 163 162 141 154 161 162 141 161 154 
          162 161 
        </DataArray>
        <DataArray type="Int32" Name="offsets" format="ascii">
          3 6 9 12 15 18 21 24 27 30 
          33 36 39 42 45 48 51 54 57 60 
          63 66 69 72 75 78 81 84 87 90 
          93 96 99 102 105 108 111 114 117 120 
          123 126 129 132 135 138 141 144 147 150 
          153 156 159 162 165 168 171 174 177 180 
          183 186 189 192 195 198 201 204 207 210 
          213 216 219 222 225 228 231 234 237 240 
          243 246 249 252 255 258 261 264 267 270 
          273 276 279 282 285 288 291 294 297 300 
          303 306 309 312 315 318 321 324 327 330 
          333 336 339 342 345 348 351 354 357 360 
          363 366 369 372 375 378 381 384 387 390 
          393 396 399 402 405 408 411 414 417 420 
          423 426 429 432 435 438 441 444 447 450 
          453 456 459 462 465 468 471 474 477 480 
          483 486 489 492 495 498 501 504 507 510 
          513 516 519 522 525 528 531 534 537 540 
          543 546 549 552 555 558 561 564 567 570 
          573 576 579 582 585 588 591 594 597 600 
          603 606 609 612 615 618 621 624 627 630 
          633 636 639 642 645 648 651 654 657 660 
          663 666 669 672 675 678 681 684 687 690 
          693 696 699 702 705 708 711 714 717 720 
          723 726 729 732 735 738 741 744 747 750 
          753 756 759 762 765 768 771 774 777 780 
          783 786 789 792 
        </DataArray>
        <DataArray type="Int32" Name="types" format="ascii">
          5 5 5 5 5 5 5 5 5 5 5 5 5 5 5 5 5 5 5 5 5 5 5 5 5 5 5 5 5 5 
          5 5 5 5 5 5 5 5 5 5 5 5 5 5 5 5 5 5 5 5 5 5 5 5 5 5 5 5 5 5 
          5 5 5 5 5 5 5 5 5 5 5 5 5 5 5 5 5 5 5 5 5 5 5 5 5 5 5 5 5 5 
          5 5 5 5 5 5 5 5 5 5 5 5 5 5 5 5 5 5 5 5 5 5 5 5 5 5 5 5 5 5 
          5 5 5 5 5 5 5 5 5 5 5 5 5 5 5 5 5 5 5 5 5 5 5 5 5 5 5 5 5 5 
          5 5 5 5 5 5 5 5 5 5 5 5 5 5 5 5 5 5 5 5 5 5 5 5 5 5 5 5 5 5 
          5 5 5 5 5 5 5 5 5 5 5 5 5 5 5 5 5 5 5 5 5 5 5 5 5 5 5 5 5 5 
          5 5 5 5 5 5 5 5 5 5 5 5 5 5 5 5 5 5 5 5 5 5 5 5 5 5 5 5 5 5 
          5 5 5 5 5 5 5 5 5 5 5 5 5 5 5 5 5 5 5 5 5 5 5 5 
        </DataArray>
      </Cells>
    </Piece>
  </UnstructuredGrid>
</VTKFile>
