<!--Convex Hulls Aggregates Visualization-->
<VTKFile type="UnstructuredGrid" byte_order="LittleEndian">
  <UnstructuredGrid>
    <Piece NumberOfPoints="164" NumberOfCells="264">
      <PointData Scalars="Node Aggregate Processor">
        <DataArray type="Int32" Name="Node" format="ascii">
          165 166 167 169 170 171 172 174 175 176 
          177 179 200 201 202 204 205 206 207 208 
          209 225 226 227 228 229 230 231 232 233 
          234 235 236 239 255 256 257 258 259 260 
          261 262 264 265 266 267 269 285 286 287 
          289 295 296 297 299 470 474 501 504 505 
          506 507 508 509 525 526 527 528 529 530 
          531 532 533 534 535 536 539 555 556 557 
          558 559 560 561 562 564 565 566 567 569 
          585 586 587 589 595 596 597 599 770 774 
          801 804 805 806 807 808 809 825 826 827 
          828 829 830 831 832 833 834 835 836 839 
          855 856 857 858 859 860 861 862 864 865 
          866 867 869 885 886 887 889 895 896 897 
          899 1065 1066 1067 1068 1069 1070 1071 1072 1073 
          1074 1075 1076 1077 1078 1079 1095 1096 1099 1100 
          1101 1102 1103 1104 
        </DataArray>
        <DataArray type="Int32" Name="Aggregate" format="ascii">
          48 48 49 49 48 48 49 49 50 50 
          51 51 50 50 51 51 48 48 49 49 
          49 48 48 49 49 49 50 50 51 51 
          51 50 50 51 50 50 51 51 51 52 
          52 53 53 52 52 53 53 54 54 55 
          55 54 54 55 55 52 53 54 55 52 
          52 53 53 53 52 52 53 53 53 54 
          54 55 55 55 54 54 55 54 54 55 
          55 55 56 56 57 57 56 56 57 57 
          58 58 59 59 58 58 59 59 56 57 
          58 59 56 56 57 57 57 56 56 57 
          57 57 58 58 59 59 59 58 58 59 
          58 58 59 59 59 60 60 61 61 60 
          60 61 61 62 62 63 63 62 62 63 
          63 60 60 61 61 61 60 60 61 61 
          61 62 62 63 63 63 62 62 63 62 
          62 63 63 63 
        </DataArray>
        <DataArray type="Int32" Name="Processor" format="ascii">
          3 3 3 3 3 3 3 3 3 3 3 3 3 3 3 3 3 3 3 3 
          3 3 3 3 3 3 3 3 3 3 3 3 3 3 3 3 3 3 3 3 
          3 3 3 3 3 3 3 3 3 3 3 3 3 3 3 3 3 3 3 3 
          3 3 3 3 3 3 3 3 3 3 3 3 3 3 3 3 3 3 3 3 
          3 3 3 3 3 3 3 3 3 3 3 3 3 3 3 3 3 3 3 3 
          3 3 3 3 3 3 3 3 3 3 3 3 3 3 3 3 3 3 3 3 
          3 3 3 3 3 3 3 3 3 3 3 3 3 3 3 3 3 3 3 3 
          3 3 3 3 3 3 3 3 3 3 3 3 3 3 3 3 3 3 3 3 
          3 3 3 3 
        </DataArray>
      </PointData>
      <Points>
        <DataArray type="Float64" NumberOfComponents="3" format="ascii">
          0.555556 0.555556 0 0.666667 0.555556 0 0.777778 0.555556 0 
          1 0.555556 0 0.555556 0.666667 0 0.666667 0.666667 0 
          0.777778 0.666667 0 1 0.666667 0 0.555556 0.777778 0 
          0.666667 0.777778 0 0.777778 0.777778 0 1 0.777778 0 
          0.555556 1 0 0.666667 1 0 0.777778 1 0 
          1 1 0 0.555556 0.555556 0.111111 0.666667 0.555556 0.111111 
          0.777778 0.555556 0.111111 0.888889 0.555556 0.111111 1 0.555556 0.111111 
          0.555556 0.666667 0.111111 0.666667 0.666667 0.111111 0.777778 0.666667 0.111111 
          0.888889 0.666667 0.111111 1 0.666667 0.111111 0.555556 0.777778 0.111111 
          0.666667 0.777778 0.111111 0.777778 0.777778 0.111111 0.888889 0.777778 0.111111 
          1 0.777778 0.111111 0.555556 0.888889 0.111111 0.666667 0.888889 0.111111 
          1 0.888889 0.111111 0.555556 1 0.111111 0.666667 1 0.111111 
          0.777778 1 0.111111 0.888889 1 0.111111 1 1 0.111111 
          0.555556 0.555556 0.222222 0.666667 0.555556 0.222222 0.777778 0.555556 0.222222 
          1 0.555556 0.222222 0.555556 0.666667 0.222222 0.666667 0.666667 0.222222 
          0.777778 0.666667 0.222222 1 0.666667 0.222222 0.555556 0.777778 0.222222 
          0.666667 0.777778 0.222222 0.777778 0.777778 0.222222 1 0.777778 0.222222 
          0.555556 1 0.222222 0.666667 1 0.222222 0.777778 1 0.222222 
          1 1 0.222222 0.555556 0.666667 0.333333 1 0.666667 0.333333 
          0.666667 1 0.333333 1 1 0.333333 0.555556 0.555556 0.444444 
          0.666667 0.555556 0.444444 0.777778 0.555556 0.444444 0.888889 0.555556 0.444444 
          1 0.555556 0.444444 0.555556 0.666667 0.444444 0.666667 0.666667 0.444444 
          0.777778 0.666667 0.444444 0.888889 0.666667 0.444444 1 0.666667 0.444444 
          0.555556 0.777778 0.444444 0.666667 0.777778 0.444444 0.777778 0.777778 0.444444 
          0.888889 0.777778 0.444444 1 0.777778 0.444444 0.555556 0.888889 0.444444 
          0.666667 0.888889 0.444444 1 0.888889 0.444444 0.555556 1 0.444444 
          0.666667 1 0.444444 0.777778 1 0.444444 0.888889 1 0.444444 
          1 1 0.444444 0.555556 0.555556 0.555556 0.666667 0.555556 0.555556 
          0.777778 0.555556 0.555556 1 0.555556 0.555556 0.555556 0.666667 0.555556 
          0.666667 0.666667 0.555556 0.777778 0.666667 0.555556 1 0.666667 0.555556 
          0.555556 0.777778 0.555556 0.666667 0.777778 0.555556 0.777778 0.777778 0.555556 
          1 0.777778 0.555556 0.555556 1 0.555556 0.666667 1 0.555556 
          0.777778 1 0.555556 1 1 0.555556 0.555556 0.666667 0.666667 
          1 0.666667 0.666667 0.666667 1 0.666667 1 1 0.666667 
          0.555556 0.555556 0.777778 0.666667 0.555556 0.777778 0.777778 0.555556 0.777778 
          0.888889 0.555556 0.777778 1 0.555556 0.777778 0.555556 0.666667 0.777778 
          0.666667 0.666667 0.777778 0.777778 0.666667 0.777778 0.888889 0.666667 0.777778 
          1 0.666667 0.777778 0.555556 0.777778 0.777778 0.666667 0.777778 0.777778 
          0.777778 0.777778 0.777778 0.888889 0.777778 0.777778 1 0.777778 0.777778 
          0.555556 0.888889 0.777778 0.666667 0.888889 0.777778 1 0.888889 0.777778 
          0.555556 1 0.777778 0.666667 1 0.777778 0.777778 1 0.777778 
          0.888889 1 0.777778 1 1 0.777778 0.555556 0.555556 0.888889 
          0.666667 0.555556 0.888889 0.777778 0.555556 0.888889 1 0.555556 0.888889 
          0.555556 0.666667 0.888889 0.666667 0.666667 0.888889 0.777778 0.666667 0.888889 
          1 0.666667 0.888889 0.555556 0.777778 0.888889 0.666667 0.777778 0.888889 
          0.777778 0.777778 0.888889 1 0.777778 0.888889 0.555556 1 0.888889 
          0.666667 1 0.888889 0.777778 1 0.888889 1 1 0.888889 
          0.555556 0.555556 1 0.666667 0.555556 1 0.777778 0.555556 1 
          0.888889 0.555556 1 1 0.555556 1 0.555556 0.666667 1 
          0.666667 0.666667 1 0.777778 0.666667 1 0.888889 0.666667 1 
          1 0.666667 1 0.555556 0.777778 1 0.666667 0.777778 1 
          0.777778 0.777778 1 0.888889 0.777778 1 1 0.777778 1 
          0.555556 0.888889 1 0.666667 0.888889 1 1 0.888889 1 
          0.555556 1 1 0.666667 1 1 0.777778 1 1 
          0.888889 1 1 1 1 1 
        </DataArray>
      </Points>
      <Cells>
        <DataArray type="Int32" Name="connectivity" format="ascii">
          0 4 1 0 1 17 1 22 17 4 
          0 16 0 17 16 17 22 16 1 4 
          5 22 1 5 4 22 5 4 16 21 
          22 4 21 16 22 21 2 6 3 2 
          3 20 3 25 20 2 20 19 20 25 
          19 6 2 18 2 19 18 19 25 18 
          3 6 7 25 3 7 6 25 7 25 
          6 24 18 25 24 6 18 23 24 6 
          23 18 24 23 9 8 12 12 8 34 
          35 12 34 34 8 31 35 34 31 8 
          9 26 31 8 26 35 31 26 9 12 
          13 35 9 13 12 35 13 9 35 32 
          35 26 32 26 9 27 9 32 27 32 
          26 27 10 14 11 11 38 33 10 11 
          30 11 33 30 10 30 29 30 33 29 
          33 38 29 14 10 28 10 29 28 29 
          38 28 11 14 15 38 11 15 14 38 
          15 38 14 37 28 38 37 14 28 36 
          37 14 36 28 37 36 65 40 44 40 
          39 44 65 44 64 39 64 55 64 44 
          55 44 39 43 39 55 43 55 44 43 
          39 40 60 40 65 60 65 64 60 39 
          60 59 64 39 59 60 64 59 41 45 
          42 41 42 63 42 68 63 41 63 62 
          63 68 62 45 41 61 41 62 61 62 
          68 61 68 42 56 45 68 56 42 45 
          46 56 42 46 45 56 46 68 45 67 
          61 68 67 45 61 66 67 45 66 61 
          67 66 48 47 51 51 47 77 78 51 
          77 77 47 74 78 77 74 47 48 69 
          74 47 69 78 74 69 78 48 57 51 
          78 57 48 51 52 57 48 52 51 57 
          52 48 78 75 78 69 75 69 48 70 
          48 75 70 75 69 70 49 53 50 50 
          81 76 49 50 73 50 76 73 49 73 
          72 73 76 72 76 81 72 53 49 71 
          49 72 71 72 81 71 81 50 58 53 
          81 58 50 53 54 58 50 54 53 58 
          54 81 53 80 71 81 80 53 71 79 
          80 53 79 71 80 79 108 83 87 83 
          82 87 108 87 107 82 107 98 107 87 
          98 87 82 86 82 98 86 98 87 86 
          82 83 103 83 108 103 108 107 103 82 
          103 102 107 82 102 103 107 102 84 88 
          85 84 85 106 85 111 106 84 106 105 
          106 111 105 88 84 104 84 105 104 105 
          111 104 111 85 99 88 111 99 85 88 
          89 99 85 89 88 99 89 111 88 110 
          104 111 110 88 104 109 110 88 109 104 
          110 109 91 90 94 94 90 120 121 94 
          120 120 90 117 121 120 117 90 91 112 
          117 90 112 121 117 112 121 91 100 94 
          121 100 91 94 95 100 91 95 94 100 
          95 91 121 118 121 112 118 112 91 113 
          91 118 113 118 112 113 92 96 93 93 
          124 119 92 93 116 93 119 116 92 116 
          115 116 119 115 119 124 115 96 92 114 
          92 115 114 115 124 114 124 93 101 96 
          124 101 93 96 97 101 93 97 96 101 
          97 124 96 123 114 124 123 96 114 122 
          123 96 122 114 123 122 125 129 126 125 
          126 142 126 147 142 129 125 141 125 142 
          141 142 147 141 126 129 130 147 126 130 
          129 147 130 129 141 146 147 129 146 141 
          147 146 127 131 128 127 128 145 128 150 
          145 127 145 144 145 150 144 131 127 143 
          127 144 143 144 150 143 128 131 132 150 
          128 132 131 150 132 150 131 149 143 150 
          149 131 143 148 149 131 148 143 149 148 
          134 133 137 137 133 159 160 137 159 159 
          133 156 160 159 156 133 134 151 156 133 
          151 160 156 151 134 137 138 160 134 138 
          137 160 138 134 160 157 160 151 157 151 
          134 152 134 157 152 157 151 152 135 139 
          136 136 163 158 135 136 155 136 158 155 
          135 155 154 155 158 154 158 163 154 139 
          135 153 135 154 153 154 163 153 136 139 
          140 163 136 140 139 163 140 163 139 162 
          153 163 162 139 153 161 162 139 161 153 
          162 161 
        </DataArray>
        <DataArray type="Int32" Name="offsets" format="ascii">
          3 6 9 12 15 18 21 24 27 30 
          33 36 39 42 45 48 51 54 57 60 
          63 66 69 72 75 78 81 84 87 90 
          93 96 99 102 105 108 111 114 117 120 
          123 126 129 132 135 138 141 144 147 150 
          153 156 159 162 165 168 171 174 177 180 
          183 186 189 192 195 198 201 204 207 210 
          213 216 219 222 225 228 231 234 237 240 
          243 246 249 252 255 258 261 264 267 270 
          273 276 279 282 285 288 291 294 297 300 
          303 306 309 312 315 318 321 324 327 330 
          333 336 339 342 345 348 351 354 357 360 
          363 366 369 372 375 378 381 384 387 390 
          393 396 399 402 405 408 411 414 417 420 
          423 426 429 432 435 438 441 444 447 450 
          453 456 459 462 465 468 471 474 477 480 
          483 486 489 492 495 498 501 504 507 510 
          513 516 519 522 525 528 531 534 537 540 
          543 546 549 552 555 558 561 564 567 570 
          573 576 579 582 585 588 591 594 597 600 
          603 606 609 612 615 618 621 624 627 630 
          633 636 639 642 645 648 651 654 657 660 
          663 666 669 672 675 678 681 684 687 690 
          693 696 699 702 705 708 711 714 717 720 
          723 726 729 732 735 738 741 744 747 750 
          753 756 759 762 765 768 771 774 777 780 
          783 786 789 792 
        </DataArray>
        <DataArray type="Int32" Name="types" format="ascii">
          5 5 5 5 5 5 5 5 5 5 5 5 5 5 5 5 5 5 5 5 5 5 5 5 5 5 5 5 5 5 
          5 5 5 5 5 5 5 5 5 5 5 5 5 5 5 5 5 5 5 5 5 5 5 5 5 5 5 5 5 5 
          5 5 5 5 5 5 5 5 5 5 5 5 5 5 5 5 5 5 5 5 5 5 5 5 5 5 5 5 5 5 
          5 5 5 5 5 5 5 5 5 5 5 5 5 5 5 5 5 5 5 5 5 5 5 5 5 5 5 5 5 5 
          5 5 5 5 5 5 5 5 5 5 5 5 5 5 5 5 5 5 5 5 5 5 5 5 5 5 5 5 5 5 
          5 5 5 5 5 5 5 5 5 5 5 5 5 5 5 5 5 5 5 5 5 5 5 5 5 5 5 5 5 5 
          5 5 5 5 5 5 5 5 5 5 5 5 5 5 5 5 5 5 5 5 5 5 5 5 5 5 5 5 5 5 
          5 5 5 5 5 5 5 5 5 5 5 5 5 5 5 5 5 5 5 5 5 5 5 5 5 5 5 5 5 5 
          5 5 5 5 5 5 5 5 5 5 5 5 5 5 5 5 5 5 5 5 5 5 5 5 
        </DataArray>
      </Cells>
    </Piece>
  </UnstructuredGrid>
</VTKFile>
