<!--Convex Hulls Aggregates Visualization-->
<VTKFile type="UnstructuredGrid" byte_order="LittleEndian">
  <UnstructuredGrid>
    <Piece NumberOfPoints="659" NumberOfCells="1062">
      <PointData Scalars="Node Aggregate Processor">
        <DataArray type="Int32" Name="Node" format="ascii">
          0 1 2 4 5 7 8 9 10 11 
          12 14 15 17 18 19 20 21 22 24 
          25 27 28 29 40 41 42 44 45 47 
          48 49 50 51 52 54 55 57 58 59 
          70 71 72 74 75 77 78 79 80 81 
          82 84 85 87 88 89 90 91 92 94 
          95 97 98 99 100 101 102 103 104 105 
          106 107 108 109 110 111 112 113 114 115 
          116 117 118 119 120 121 122 123 124 125 
          126 127 128 129 130 131 134 137 138 139 
          140 141 142 143 144 145 146 147 148 149 
          150 151 152 153 154 155 156 157 158 159 
          160 161 164 167 168 169 170 171 172 173 
          174 175 176 177 178 179 180 181 182 183 
          184 185 186 187 188 189 190 191 192 193 
          194 195 196 197 198 199 200 201 202 204 
          205 207 208 209 210 211 212 214 215 217 
          218 219 220 221 222 224 225 227 228 229 
          240 241 242 244 245 247 248 249 250 251 
          252 254 255 257 258 259 270 271 272 274 
          275 276 277 278 279 280 281 282 284 285 
          287 288 289 290 291 292 294 295 296 297 
          298 299 310 314 317 318 341 344 347 349 
          371 374 375 378 390 394 395 398 400 401 
          402 403 404 405 406 407 408 409 410 411 
          412 413 414 415 416 417 418 419 420 421 
          422 423 424 425 427 428 429 430 431 434 
          435 437 438 439 440 441 442 443 444 445 
          446 447 448 449 450 451 452 453 454 455 
          456 457 458 459 460 461 464 465 467 468 
          469 470 471 472 473 474 475 476 477 478 
          479 480 481 482 483 484 485 486 487 488 
          489 490 491 492 493 494 495 496 497 498 
          499 500 501 502 504 505 507 508 509 510 
          511 512 514 515 517 518 519 520 521 522 
          524 525 527 528 529 540 541 542 544 545 
          547 548 549 550 551 552 554 555 557 558 
          559 569 570 571 572 574 575 577 578 579 
          580 581 582 584 585 587 588 589 590 591 
          592 594 595 596 597 598 599 610 614 617 
          618 641 644 647 649 671 674 677 679 681 
          694 697 698 700 701 702 703 704 705 706 
          707 708 709 710 711 712 713 714 715 716 
          717 718 719 720 721 722 723 724 725 727 
          728 729 730 731 734 735 737 738 739 740 
          741 742 743 744 745 746 747 748 749 750 
          751 752 753 754 755 756 757 758 759 760 
          761 764 767 769 770 771 772 773 774 775 
          776 777 778 779 780 781 782 783 784 785 
          787 788 789 790 791 792 793 794 795 796 
          797 798 799 800 801 802 804 805 807 808 
          809 810 811 812 814 815 816 817 818 819 
          820 821 822 824 825 827 828 829 840 841 
          842 843 844 845 847 848 849 850 851 852 
          854 855 857 858 859 861 870 871 872 874 
          875 877 878 879 880 881 882 884 885 887 
          888 889 890 891 892 894 895 897 898 899 
          900 901 902 903 904 905 907 908 909 910 
          911 912 913 914 915 916 917 918 919 920 
          921 922 924 925 927 928 929 930 931 934 
          935 937 938 939 940 941 942 943 944 945 
          946 947 948 949 950 951 952 953 954 955 
          956 957 958 959 961 964 967 968 969 970 
          971 972 973 974 975 976 977 978 979 980 
          981 982 983 984 985 986 987 988 989 990 
          991 992 993 994 995 996 997 998 999 
        </DataArray>
        <DataArray type="Int32" Name="Aggregate" format="ascii">
          0 0 1 1 2 2 3 3 0 0 
          1 1 2 2 3 3 4 4 5 5 
          6 6 7 7 4 4 5 5 6 6 
          7 7 8 8 9 9 10 10 11 11 
          8 8 9 9 10 10 11 11 12 12 
          13 13 14 14 15 15 12 12 13 13 
          14 14 15 15 0 0 1 1 1 2 
          2 2 3 3 0 0 1 1 1 2 
          2 2 3 3 4 4 5 5 5 6 
          6 6 7 7 4 4 5 6 7 7 
          4 4 5 5 5 6 6 6 7 7 
          8 8 9 9 9 10 10 10 11 11 
          8 8 9 10 11 11 8 8 9 9 
          9 10 10 10 11 11 12 12 13 13 
          13 14 14 14 15 15 12 12 13 13 
          13 14 14 14 15 15 16 16 17 17 
          18 18 19 19 16 16 17 17 18 18 
          19 19 20 20 21 21 22 22 23 23 
          20 20 21 21 22 22 23 23 24 24 
          25 25 26 26 27 27 24 24 25 25 
          26 26 26 27 27 28 28 29 29 30 
          30 31 31 28 28 29 29 30 30 30 
          31 31 16 17 18 19 20 21 22 23 
          24 25 26 27 28 29 30 31 16 16 
          17 17 17 18 18 18 19 19 16 16 
          17 17 17 18 18 18 19 19 20 20 
          21 21 21 22 22 23 23 20 20 21 
          22 22 23 23 20 20 21 21 21 22 
          22 22 23 23 24 24 25 25 25 26 
          26 26 27 27 24 24 25 26 26 27 
          27 24 24 25 25 25 26 26 26 27 
          27 28 28 29 29 29 30 30 30 31 
          31 28 28 29 29 29 30 30 30 31 
          31 32 32 33 33 34 34 35 35 32 
          32 33 33 34 34 35 35 36 36 37 
          37 38 38 39 39 36 36 37 37 38 
          38 39 39 40 40 41 41 42 42 43 
          43 43 40 40 41 41 42 42 43 43 
          44 44 45 45 46 46 47 47 44 44 
          45 45 46 46 46 47 47 32 33 34 
          35 36 37 38 39 40 41 42 43 44 
          45 46 47 32 32 33 33 33 34 34 
          34 35 35 32 32 33 33 33 34 34 
          34 35 35 36 36 37 37 37 38 38 
          39 39 36 36 37 38 38 39 39 36 
          36 37 37 37 38 38 38 39 39 40 
          40 41 41 41 42 42 42 43 43 40 
          40 41 42 43 40 40 41 41 41 42 
          42 42 43 43 44 44 45 45 45 46 
          46 47 47 44 44 45 45 45 46 46 
          46 47 47 48 48 49 49 50 50 51 
          51 48 48 49 49 50 50 50 51 51 
          52 52 53 53 54 54 55 55 52 52 
          53 53 53 54 54 55 55 56 56 57 
          57 58 58 59 59 56 56 56 57 57 
          58 58 59 59 60 60 61 61 62 62 
          63 63 60 60 61 61 62 62 63 63 
          48 48 49 49 49 50 50 51 51 48 
          48 49 49 49 50 50 50 51 51 52 
          52 53 53 54 54 55 55 52 52 53 
          54 54 55 55 52 52 53 53 53 54 
          54 54 55 55 56 56 57 57 57 58 
          58 58 59 59 56 57 58 59 59 56 
          56 57 57 57 58 58 58 59 59 60 
          60 61 61 61 62 62 62 63 63 60 
          60 61 61 61 62 62 62 63 63 
        </DataArray>
        <DataArray type="Int32" Name="Processor" format="ascii">
          0 0 0 0 0 0 0 0 0 0 0 0 0 0 0 0 0 0 0 0 
          0 0 0 0 0 0 0 0 0 0 0 0 0 0 0 0 0 0 0 0 
          0 0 0 0 0 0 0 0 0 0 0 0 0 0 0 0 0 0 0 0 
          0 0 0 0 0 0 0 0 0 0 0 0 0 0 0 0 0 0 0 0 
          0 0 0 0 0 0 0 0 0 0 0 0 0 0 0 0 0 0 0 0 
          0 0 0 0 0 0 0 0 0 0 0 0 0 0 0 0 0 0 0 0 
          0 0 0 0 0 0 0 0 0 0 0 0 0 0 0 0 0 0 0 0 
          0 0 0 0 0 0 0 0 0 0 0 0 0 0 0 0 0 0 0 0 
          0 0 0 0 0 0 0 0 0 0 0 0 0 0 0 0 0 0 0 0 
          0 0 0 0 0 0 0 0 0 0 0 0 0 0 0 0 0 0 0 0 
          0 0 0 0 0 0 0 0 0 0 0 0 0 0 0 0 0 0 0 0 
          0 0 0 0 0 0 0 0 0 0 0 0 0 0 0 0 0 0 0 0 
          0 0 0 0 0 0 0 0 0 0 0 0 0 0 0 0 0 0 0 0 
          0 0 0 0 0 0 0 0 0 0 0 0 0 0 0 0 0 0 0 0 
          0 0 0 0 0 0 0 0 0 0 0 0 0 0 0 0 0 0 0 0 
          0 0 0 0 0 0 0 0 0 0 0 0 0 0 0 0 0 0 0 0 
          0 0 0 0 0 0 0 0 0 0 0 0 0 0 0 0 0 0 0 0 
          0 0 0 0 0 0 0 0 0 0 0 0 0 0 0 0 0 0 0 0 
          0 0 0 0 0 0 0 0 0 0 0 0 0 0 0 0 0 0 0 0 
          0 0 0 0 0 0 0 0 0 0 0 0 0 0 0 0 0 0 0 0 
          0 0 0 0 0 0 0 0 0 0 0 0 0 0 0 0 0 0 0 0 
          0 0 0 0 0 0 0 0 0 0 0 0 0 0 0 0 0 0 0 0 
          0 0 0 0 0 0 0 0 0 0 0 0 0 0 0 0 0 0 0 0 
          0 0 0 0 0 0 0 0 0 0 0 0 0 0 0 0 0 0 0 0 
          0 0 0 0 0 0 0 0 0 0 0 0 0 0 0 0 0 0 0 0 
          0 0 0 0 0 0 0 0 0 0 0 0 0 0 0 0 0 0 0 0 
          0 0 0 0 0 0 0 0 0 0 0 0 0 0 0 0 0 0 0 0 
          0 0 0 0 0 0 0 0 0 0 0 0 0 0 0 0 0 0 0 0 
          0 0 0 0 0 0 0 0 0 0 0 0 0 0 0 0 0 0 0 0 
          0 0 0 0 0 0 0 0 0 0 0 0 0 0 0 0 0 0 0 0 
          0 0 0 0 0 0 0 0 0 0 0 0 0 0 0 0 0 0 0 0 
          0 0 0 0 0 0 0 0 0 0 0 0 0 0 0 0 0 0 0 0 
          0 0 0 0 0 0 0 0 0 0 0 0 0 0 0 0 0 0 0 
        </DataArray>
      </PointData>
      <Points>
        <DataArray type="Float64" NumberOfComponents="3" format="ascii">
          0 0 0 0.111111 0 0 0.222222 0 0 
          0.444444 0 0 0.555556 0 0 0.777778 0 0 
          0.888889 0 0 1 0 0 0 0.111111 0 
          0.111111 0.111111 0 0.222222 0.111111 0 0.444444 0.111111 0 
          0.555556 0.111111 0 0.777778 0.111111 0 0.888889 0.111111 0 
          1 0.111111 0 0 0.222222 0 0.111111 0.222222 0 
          0.222222 0.222222 0 0.444444 0.222222 0 0.555556 0.222222 0 
          0.777778 0.222222 0 0.888889 0.222222 0 1 0.222222 0 
          0 0.444444 0 0.111111 0.444444 0 0.222222 0.444444 0 
          0.444444 0.444444 0 0.555556 0.444444 0 0.777778 0.444444 0 
          0.888889 0.444444 0 1 0.444444 0 0 0.555556 0 
          0.111111 0.555556 0 0.222222 0.555556 0 0.444444 0.555556 0 
          0.555556 0.555556 0 0.777778 0.555556 0 0.888889 0.555556 0 
          1 0.555556 0 0 0.777778 0 0.111111 0.777778 0 
          0.222222 0.777778 0 0.444444 0.777778 0 0.555556 0.777778 0 
          0.777778 0.777778 0 0.888889 0.777778 0 1 0.777778 0 
          0 0.888889 0 0.111111 0.888889 0 0.222222 0.888889 0 
          0.444444 0.888889 0 0.555556 0.888889 0 0.777778 0.888889 0 
          0.888889 0.888889 0 1 0.888889 0 0 1 0 
          0.111111 1 0 0.222222 1 0 0.444444 1 0 
          0.555556 1 0 0.777778 1 0 0.888889 1 0 
          1 1 0 0 0 0.111111 0.111111 0 0.111111 
          0.222222 0 0.111111 0.333333 0 0.111111 0.444444 0 0.111111 
          0.555556 0 0.111111 0.666667 0 0.111111 0.777778 0 0.111111 
          0.888889 0 0.111111 1 0 0.111111 0 0.111111 0.111111 
          0.111111 0.111111 0.111111 0.222222 0.111111 0.111111 0.333333 0.111111 0.111111 
          0.444444 0.111111 0.111111 0.555556 0.111111 0.111111 0.666667 0.111111 0.111111 
          0.777778 0.111111 0.111111 0.888889 0.111111 0.111111 1 0.111111 0.111111 
          0 0.222222 0.111111 0.111111 0.222222 0.111111 0.222222 0.222222 0.111111 
          0.333333 0.222222 0.111111 0.444444 0.222222 0.111111 0.555556 0.222222 0.111111 
          0.666667 0.222222 0.111111 0.777778 0.222222 0.111111 0.888889 0.222222 0.111111 
          1 0.222222 0.111111 0 0.333333 0.111111 0.111111 0.333333 0.111111 
          0.444444 0.333333 0.111111 0.777778 0.333333 0.111111 0.888889 0.333333 0.111111 
          1 0.333333 0.111111 0 0.444444 0.111111 0.111111 0.444444 0.111111 
          0.222222 0.444444 0.111111 0.333333 0.444444 0.111111 0.444444 0.444444 0.111111 
          0.555556 0.444444 0.111111 0.666667 0.444444 0.111111 0.777778 0.444444 0.111111 
          0.888889 0.444444 0.111111 1 0.444444 0.111111 0 0.555556 0.111111 
          0.111111 0.555556 0.111111 0.222222 0.555556 0.111111 0.333333 0.555556 0.111111 
          0.444444 0.555556 0.111111 0.555556 0.555556 0.111111 0.666667 0.555556 0.111111 
          0.777778 0.555556 0.111111 0.888889 0.555556 0.111111 1 0.555556 0.111111 
          0 0.666667 0.111111 0.111111 0.666667 0.111111 0.444444 0.666667 0.111111 
          0.777778 0.666667 0.111111 0.888889 0.666667 0.111111 1 0.666667 0.111111 
          0 0.777778 0.111111 0.111111 0.777778 0.111111 0.222222 0.777778 0.111111 
          0.333333 0.777778 0.111111 0.444444 0.777778 0.111111 0.555556 0.777778 0.111111 
          0.666667 0.777778 0.111111 0.777778 0.777778 0.111111 0.888889 0.777778 0.111111 
          1 0.777778 0.111111 0 0.888889 0.111111 0.111111 0.888889 0.111111 
          0.222222 0.888889 0.111111 0.333333 0.888889 0.111111 0.444444 0.888889 0.111111 
          0.555556 0.888889 0.111111 0.666667 0.888889 0.111111 0.777778 0.888889 0.111111 
          0.888889 0.888889 0.111111 1 0.888889 0.111111 0 1 0.111111 
          0.111111 1 0.111111 0.222222 1 0.111111 0.333333 1 0.111111 
          0.444444 1 0.111111 0.555556 1 0.111111 0.666667 1 0.111111 
          0.777778 1 0.111111 0.888889 1 0.111111 1 1 0.111111 
          0 0 0.222222 0.111111 0 0.222222 0.222222 0 0.222222 
          0.444444 0 0.222222 0.555556 0 0.222222 0.777778 0 0.222222 
          0.888889 0 0.222222 1 0 0.222222 0 0.111111 0.222222 
          0.111111 0.111111 0.222222 0.222222 0.111111 0.222222 0.444444 0.111111 0.222222 
          0.555556 0.111111 0.222222 0.777778 0.111111 0.222222 0.888889 0.111111 0.222222 
          1 0.111111 0.222222 0 0.222222 0.222222 0.111111 0.222222 0.222222 
          0.222222 0.222222 0.222222 0.444444 0.222222 0.222222 0.555556 0.222222 0.222222 
          0.777778 0.222222 0.222222 0.888889 0.222222 0.222222 1 0.222222 0.222222 
          0 0.444444 0.222222 0.111111 0.444444 0.222222 0.222222 0.444444 0.222222 
          0.444444 0.444444 0.222222 0.555556 0.444444 0.222222 0.777778 0.444444 0.222222 
          0.888889 0.444444 0.222222 1 0.444444 0.222222 0 0.555556 0.222222 
          0.111111 0.555556 0.222222 0.222222 0.555556 0.222222 0.444444 0.555556 0.222222 
          0.555556 0.555556 0.222222 0.777778 0.555556 0.222222 0.888889 0.555556 0.222222 
          1 0.555556 0.222222 0 0.777778 0.222222 0.111111 0.777778 0.222222 
          0.222222 0.777778 0.222222 0.444444 0.777778 0.222222 0.555556 0.777778 0.222222 
          0.666667 0.777778 0.222222 0.777778 0.777778 0.222222 0.888889 0.777778 0.222222 
          1 0.777778 0.222222 0 0.888889 0.222222 0.111111 0.888889 0.222222 
          0.222222 0.888889 0.222222 0.444444 0.888889 0.222222 0.555556 0.888889 0.222222 
          0.777778 0.888889 0.222222 0.888889 0.888889 0.222222 1 0.888889 0.222222 
          0 1 0.222222 0.111111 1 0.222222 0.222222 1 0.222222 
          0.444444 1 0.222222 0.555556 1 0.222222 0.666667 1 0.222222 
          0.777778 1 0.222222 0.888889 1 0.222222 1 1 0.222222 
          0 0.111111 0.333333 0.444444 0.111111 0.333333 0.777778 0.111111 0.333333 
          0.888889 0.111111 0.333333 0.111111 0.444444 0.333333 0.444444 0.444444 0.333333 
          0.777778 0.444444 0.333333 1 0.444444 0.333333 0.111111 0.777778 0.333333 
          0.444444 0.777778 0.333333 0.555556 0.777778 0.333333 0.888889 0.777778 0.333333 
          0 1 0.333333 0.444444 1 0.333333 0.555556 1 0.333333 
          0.888889 1 0.333333 0 0 0.444444 0.111111 0 0.444444 
          0.222222 0 0.444444 0.333333 0 0.444444 0.444444 0 0.444444 
          0.555556 0 0.444444 0.666667 0 0.444444 0.777778 0 0.444444 
          0.888889 0 0.444444 1 0 0.444444 0 0.111111 0.444444 
          0.111111 0.111111 0.444444 0.222222 0.111111 0.444444 0.333333 0.111111 0.444444 
          0.444444 0.111111 0.444444 0.555556 0.111111 0.444444 0.666667 0.111111 0.444444 
          0.777778 0.111111 0.444444 0.888889 0.111111 0.444444 1 0.111111 0.444444 
          0 0.222222 0.444444 0.111111 0.222222 0.444444 0.222222 0.222222 0.444444 
          0.333333 0.222222 0.444444 0.444444 0.222222 0.444444 0.555556 0.222222 0.444444 
          0.777778 0.222222 0.444444 0.888889 0.222222 0.444444 1 0.222222 0.444444 
          0 0.333333 0.444444 0.111111 0.333333 0.444444 0.444444 0.333333 0.444444 
          0.555556 0.333333 0.444444 0.777778 0.333333 0.444444 0.888889 0.333333 0.444444 
          1 0.333333 0.444444 0 0.444444 0.444444 0.111111 0.444444 0.444444 
          0.222222 0.444444 0.444444 0.333333 0.444444 0.444444 0.444444 0.444444 0.444444 
          0.555556 0.444444 0.444444 0.666667 0.444444 0.444444 0.777778 0.444444 0.444444 
          0.888889 0.444444 0.444444 1 0.444444 0.444444 0 0.555556 0.444444 
          0.111111 0.555556 0.444444 0.222222 0.555556 0.444444 0.333333 0.555556 0.444444 
          0.444444 0.555556 0.444444 0.555556 0.555556 0.444444 0.666667 0.555556 0.444444 
          0.777778 0.555556 0.444444 0.888889 0.555556 0.444444 1 0.555556 0.444444 
          0 0.666667 0.444444 0.111111 0.666667 0.444444 0.444444 0.666667 0.444444 
          0.555556 0.666667 0.444444 0.777778 0.666667 0.444444 0.888889 0.666667 0.444444 
          1 0.666667 0.444444 0 0.777778 0.444444 0.111111 0.777778 0.444444 
          0.222222 0.777778 0.444444 0.333333 0.777778 0.444444 0.444444 0.777778 0.444444 
          0.555556 0.777778 0.444444 0.666667 0.777778 0.444444 0.777778 0.777778 0.444444 
          0.888889 0.777778 0.444444 1 0.777778 0.444444 0 0.888889 0.444444 
          0.111111 0.888889 0.444444 0.222222 0.888889 0.444444 0.333333 0.888889 0.444444 
          0.444444 0.888889 0.444444 0.555556 0.888889 0.444444 0.666667 0.888889 0.444444 
          0.777778 0.888889 0.444444 0.888889 0.888889 0.444444 1 0.888889 0.444444 
          0 1 0.444444 0.111111 1 0.444444 0.222222 1 0.444444 
          0.333333 1 0.444444 0.444444 1 0.444444 0.555556 1 0.444444 
          0.666667 1 0.444444 0.777778 1 0.444444 0.888889 1 0.444444 
          1 1 0.444444 0 0 0.555556 0.111111 0 0.555556 
          0.222222 0 0.555556 0.444444 0 0.555556 0.555556 0 0.555556 
          0.777778 0 0.555556 0.888889 0 0.555556 1 0 0.555556 
          0 0.111111 0.555556 0.111111 0.111111 0.555556 0.222222 0.111111 0.555556 
          0.444444 0.111111 0.555556 0.555556 0.111111 0.555556 0.777778 0.111111 0.555556 
          0.888889 0.111111 0.555556 1 0.111111 0.555556 0 0.222222 0.555556 
          0.111111 0.222222 0.555556 0.222222 0.222222 0.555556 0.444444 0.222222 0.555556 
          0.555556 0.222222 0.555556 0.777778 0.222222 0.555556 0.888889 0.222222 0.555556 
          1 0.222222 0.555556 0 0.444444 0.555556 0.111111 0.444444 0.555556 
          0.222222 0.444444 0.555556 0.444444 0.444444 0.555556 0.555556 0.444444 0.555556 
          0.777778 0.444444 0.555556 0.888889 0.444444 0.555556 1 0.444444 0.555556 
          0 0.555556 0.555556 0.111111 0.555556 0.555556 0.222222 0.555556 0.555556 
          0.444444 0.555556 0.555556 0.555556 0.555556 0.555556 0.777778 0.555556 0.555556 
          0.888889 0.555556 0.555556 1 0.555556 0.555556 1 0.666667 0.555556 
          0 0.777778 0.555556 0.111111 0.777778 0.555556 0.222222 0.777778 0.555556 
          0.444444 0.777778 0.555556 0.555556 0.777778 0.555556 0.777778 0.777778 0.555556 
          0.888889 0.777778 0.555556 1 0.777778 0.555556 0 0.888889 0.555556 
          0.111111 0.888889 0.555556 0.222222 0.888889 0.555556 0.444444 0.888889 0.555556 
          0.555556 0.888889 0.555556 0.777778 0.888889 0.555556 0.888889 0.888889 0.555556 
          1 0.888889 0.555556 0 1 0.555556 0.111111 1 0.555556 
          0.222222 1 0.555556 0.444444 1 0.555556 0.555556 1 0.555556 
          0.666667 1 0.555556 0.777778 1 0.555556 0.888889 1 0.555556 
          1 1 0.555556 0 0.111111 0.666667 0.444444 0.111111 0.666667 
          0.777778 0.111111 0.666667 0.888889 0.111111 0.666667 0.111111 0.444444 0.666667 
          0.444444 0.444444 0.666667 0.777778 0.444444 0.666667 1 0.444444 0.666667 
          0.111111 0.777778 0.666667 0.444444 0.777778 0.666667 0.777778 0.777778 0.666667 
          1 0.777778 0.666667 0.111111 0.888889 0.666667 0.444444 1 0.666667 
          0.777778 1 0.666667 0.888889 1 0.666667 0 0 0.777778 
          0.111111 0 0.777778 0.222222 0 0.777778 0.333333 0 0.777778 
          0.444444 0 0.777778 0.555556 0 0.777778 0.666667 0 0.777778 
          0.777778 0 0.777778 0.888889 0 0.777778 1 0 0.777778 
          0 0.111111 0.777778 0.111111 0.111111 0.777778 0.222222 0.111111 0.777778 
          0.333333 0.111111 0.777778 0.444444 0.111111 0.777778 0.555556 0.111111 0.777778 
          0.666667 0.111111 0.777778 0.777778 0.111111 0.777778 0.888889 0.111111 0.777778 
          1 0.111111 0.777778 0 0.222222 0.777778 0.111111 0.222222 0.777778 
          0.222222 0.222222 0.777778 0.333333 0.222222 0.777778 0.444444 0.222222 0.777778 
          0.555556 0.222222 0.777778 0.777778 0.222222 0.777778 0.888889 0.222222 0.777778 
          1 0.222222 0.777778 0 0.333333 0.777778 0.111111 0.333333 0.777778 
          0.444444 0.333333 0.777778 0.555556 0.333333 0.777778 0.777778 0.333333 0.777778 
          0.888889 0.333333 0.777778 1 0.333333 0.777778 0 0.444444 0.777778 
          0.111111 0.444444 0.777778 0.222222 0.444444 0.777778 0.333333 0.444444 0.777778 
          0.444444 0.444444 0.777778 0.555556 0.444444 0.777778 0.666667 0.444444 0.777778 
          0.777778 0.444444 0.777778 0.888889 0.444444 0.777778 1 0.444444 0.777778 
          0 0.555556 0.777778 0.111111 0.555556 0.777778 0.222222 0.555556 0.777778 
          0.333333 0.555556 0.777778 0.444444 0.555556 0.777778 0.555556 0.555556 0.777778 
          0.666667 0.555556 0.777778 0.777778 0.555556 0.777778 0.888889 0.555556 0.777778 
          1 0.555556 0.777778 0 0.666667 0.777778 0.111111 0.666667 0.777778 
          0.444444 0.666667 0.777778 0.777778 0.666667 0.777778 1 0.666667 0.777778 
          0 0.777778 0.777778 0.111111 0.777778 0.777778 0.222222 0.777778 0.777778 
          0.333333 0.777778 0.777778 0.444444 0.777778 0.777778 0.555556 0.777778 0.777778 
          0.666667 0.777778 0.777778 0.777778 0.777778 0.777778 0.888889 0.777778 0.777778 
          1 0.777778 0.777778 0 0.888889 0.777778 0.111111 0.888889 0.777778 
          0.222222 0.888889 0.777778 0.333333 0.888889 0.777778 0.444444 0.888889 0.777778 
          0.555556 0.888889 0.777778 0.777778 0.888889 0.777778 0.888889 0.888889 0.777778 
          1 0.888889 0.777778 0 1 0.777778 0.111111 1 0.777778 
          0.222222 1 0.777778 0.333333 1 0.777778 0.444444 1 0.777778 
          0.555556 1 0.777778 0.666667 1 0.777778 0.777778 1 0.777778 
          0.888889 1 0.777778 1 1 0.777778 0 0 0.888889 
          0.111111 0 0.888889 0.222222 0 0.888889 0.444444 0 0.888889 
          0.555556 0 0.888889 0.777778 0 0.888889 0.888889 0 0.888889 
          1 0 0.888889 0 0.111111 0.888889 0.111111 0.111111 0.888889 
          0.222222 0.111111 0.888889 0.444444 0.111111 0.888889 0.555556 0.111111 0.888889 
          0.666667 0.111111 0.888889 0.777778 0.111111 0.888889 0.888889 0.111111 0.888889 
          1 0.111111 0.888889 0 0.222222 0.888889 0.111111 0.222222 0.888889 
          0.222222 0.222222 0.888889 0.444444 0.222222 0.888889 0.555556 0.222222 0.888889 
          0.777778 0.222222 0.888889 0.888889 0.222222 0.888889 1 0.222222 0.888889 
          0 0.444444 0.888889 0.111111 0.444444 0.888889 0.222222 0.444444 0.888889 
          0.333333 0.444444 0.888889 0.444444 0.444444 0.888889 0.555556 0.444444 0.888889 
          0.777778 0.444444 0.888889 0.888889 0.444444 0.888889 1 0.444444 0.888889 
          0 0.555556 0.888889 0.111111 0.555556 0.888889 0.222222 0.555556 0.888889 
          0.444444 0.555556 0.888889 0.555556 0.555556 0.888889 0.777778 0.555556 0.888889 
          0.888889 0.555556 0.888889 1 0.555556 0.888889 0.111111 0.666667 0.888889 
          0 0.777778 0.888889 0.111111 0.777778 0.888889 0.222222 0.777778 0.888889 
          0.444444 0.777778 0.888889 0.555556 0.777778 0.888889 0.777778 0.777778 0.888889 
          0.888889 0.777778 0.888889 1 0.777778 0.888889 0 0.888889 0.888889 
          0.111111 0.888889 0.888889 0.222222 0.888889 0.888889 0.444444 0.888889 0.888889 
          0.555556 0.888889 0.888889 0.777778 0.888889 0.888889 0.888889 0.888889 0.888889 
          1 0.888889 0.888889 0 1 0.888889 0.111111 1 0.888889 
          0.222222 1 0.888889 0.444444 1 0.888889 0.555556 1 0.888889 
          0.777778 1 0.888889 0.888889 1 0.888889 1 1 0.888889 
          0 0 1 0.111111 0 1 0.222222 0 1 
          0.333333 0 1 0.444444 0 1 0.555556 0 1 
          0.777778 0 1 0.888889 0 1 1 0 1 
          0 0.111111 1 0.111111 0.111111 1 0.222222 0.111111 1 
          0.333333 0.111111 1 0.444444 0.111111 1 0.555556 0.111111 1 
          0.666667 0.111111 1 0.777778 0.111111 1 0.888889 0.111111 1 
          1 0.111111 1 0 0.222222 1 0.111111 0.222222 1 
          0.222222 0.222222 1 0.444444 0.222222 1 0.555556 0.222222 1 
          0.777778 0.222222 1 0.888889 0.222222 1 1 0.222222 1 
          0 0.333333 1 0.111111 0.333333 1 0.444444 0.333333 1 
          0.555556 0.333333 1 0.777778 0.333333 1 0.888889 0.333333 1 
          1 0.333333 1 0 0.444444 1 0.111111 0.444444 1 
          0.222222 0.444444 1 0.333333 0.444444 1 0.444444 0.444444 1 
          0.555556 0.444444 1 0.666667 0.444444 1 0.777778 0.444444 1 
          0.888889 0.444444 1 1 0.444444 1 0 0.555556 1 
          0.111111 0.555556 1 0.222222 0.555556 1 0.333333 0.555556 1 
          0.444444 0.555556 1 0.555556 0.555556 1 0.666667 0.555556 1 
          0.777778 0.555556 1 0.888889 0.555556 1 1 0.555556 1 
          0.111111 0.666667 1 0.444444 0.666667 1 0.777778 0.666667 1 
          0.888889 0.666667 1 1 0.666667 1 0 0.777778 1 
          0.111111 0.777778 1 0.222222 0.777778 1 0.333333 0.777778 1 
          0.444444 0.777778 1 0.555556 0.777778 1 0.666667 0.777778 1 
          0.777778 0.777778 1 0.888889 0.777778 1 1 0.777778 1 
          0 0.888889 1 0.111111 0.888889 1 0.222222 0.888889 1 
          0.333333 0.888889 1 0.444444 0.888889 1 0.555556 0.888889 1 
          0.666667 0.888889 1 0.777778 0.888889 1 0.888889 0.888889 1 
          1 0.888889 1 0 1 1 0.111111 1 1 
          0.222222 1 1 0.333333 1 1 0.444444 1 1 
          0.555556 1 1 0.666667 1 1 0.777778 1 1 
          0.888889 1 1 1 1 1 
        </DataArray>
      </Points>
      <Cells>
        <DataArray type="Int32" Name="connectivity" format="ascii">
          0 8 1 0 1 65 1 75 65 8 
          0 64 0 65 64 65 75 64 1 8 
          9 75 1 9 8 75 9 8 64 74 
          75 8 74 64 75 74 2 10 3 2 
          3 68 3 78 68 2 68 67 68 78 
          67 10 2 66 2 67 66 67 78 66 
          3 10 11 78 3 11 10 78 11 78 
          10 77 66 78 77 10 66 76 77 10 
          76 66 77 76 4 12 5 4 5 71 
          5 81 71 4 71 70 71 81 70 12 
          4 69 4 70 69 70 81 69 5 12 
          13 81 5 13 12 81 13 81 12 80 
          69 81 80 12 69 79 80 12 79 69 
          80 79 6 14 7 6 7 73 7 83 
          73 14 6 72 6 73 72 73 83 72 
          7 14 15 83 7 15 14 83 15 14 
          72 82 83 14 82 72 83 82 17 16 
          24 24 16 100 101 24 100 100 16 94 
          101 100 94 16 17 84 94 16 84 101 
          94 84 17 24 25 101 17 25 24 101 
          25 17 101 95 101 84 95 84 17 85 
          17 95 85 95 84 85 18 26 19 19 
          104 96 18 19 88 19 96 88 18 88 
          87 88 96 87 96 104 87 26 18 86 
          18 87 86 87 104 86 19 26 27 104 
          19 27 26 104 27 104 26 103 86 104 
          103 26 86 102 103 26 102 86 103 102 
          20 28 21 21 107 97 20 21 91 21 
          97 91 20 91 90 91 97 90 97 107 
          90 28 20 89 20 90 89 90 107 89 
          21 28 29 107 21 29 28 107 29 107 
          28 106 89 107 106 28 89 105 106 28 
          105 89 106 105 23 22 30 30 22 108 
          109 30 108 108 22 98 109 108 98 22 
          23 92 98 22 92 109 98 92 23 30 
          31 109 23 31 30 109 31 23 109 99 
          109 92 99 92 23 93 23 99 93 99 
          92 93 33 32 40 40 32 126 127 40 
          126 126 32 120 127 126 120 32 33 110 
          120 32 110 127 120 110 33 40 41 127 
          33 41 40 127 41 33 127 121 127 110 
          121 110 33 111 33 121 111 121 110 111 
          34 42 35 35 130 122 34 35 114 35 
          122 114 34 114 113 114 122 113 122 130 
          113 42 34 112 34 113 112 113 130 112 
          35 42 43 130 35 43 42 130 43 130 
          42 129 112 130 129 42 112 128 129 42 
          128 112 129 128 36 44 37 37 133 123 
          36 37 117 37 123 117 36 117 116 117 
          123 116 123 133 116 44 36 115 36 116 
          115 116 133 115 37 44 45 133 37 45 
          44 133 45 133 44 132 115 133 132 44 
          115 131 132 44 131 115 132 131 39 38 
          46 46 38 134 135 46 134 134 38 124 
          135 134 124 38 39 118 124 38 118 135 
          124 118 39 46 47 135 39 47 46 135 
          47 39 135 125 135 118 125 118 39 119 
          39 125 119 125 118 119 49 48 56 56 
          48 146 147 56 146 48 49 136 146 48 
          136 147 146 136 49 56 57 147 49 57 
          56 147 57 136 49 137 49 147 137 147 
          136 137 50 58 51 50 51 140 51 150 
          140 50 140 139 140 150 139 58 50 138 
          50 139 138 139 150 138 51 58 59 150 
          51 59 58 150 59 150 58 149 138 150 
          149 58 138 148 149 58 148 138 149 148 
          52 60 53 52 53 143 53 153 143 52 
          143 142 143 153 142 60 52 141 52 142 
          141 142 153 141 53 60 61 153 53 61 
          60 153 61 153 60 152 141 153 152 60 
          141 151 152 60 151 141 152 151 54 62 
          55 54 55 145 55 155 145 62 54 144 
          54 145 144 145 155 144 55 62 63 155 
          55 63 62 155 63 62 144 154 155 62 
          154 144 155 154 249 157 165 157 156 165 
          249 165 248 156 248 222 248 165 222 165 
          156 164 156 222 164 222 165 164 156 157 
          239 157 249 239 249 248 239 156 239 238 
          248 156 238 239 248 238 158 166 159 158 
          159 242 159 252 242 158 242 241 242 252 
          241 166 158 240 158 241 240 241 252 240 
          252 159 223 166 252 223 159 166 167 223 
          159 167 166 223 167 252 166 251 240 252 
          251 166 240 250 251 166 250 240 251 250 
          160 168 161 160 161 245 161 255 245 160 
          245 244 245 255 244 168 160 243 160 244 
          243 244 255 243 255 161 224 168 255 224 
          161 168 169 224 161 169 168 224 169 255 
          168 254 243 255 254 168 243 253 254 168 
          253 243 254 253 257 163 171 163 162 171 
          257 171 256 162 256 225 256 171 225 171 
          162 170 162 225 170 225 171 170 162 163 
          247 163 257 247 257 256 247 162 247 246 
          256 162 246 247 256 246 173 172 180 180 
          172 274 275 180 274 274 172 267 275 274 
          267 172 173 258 267 172 258 275 267 258 
          275 173 226 180 275 226 173 180 181 226 
          173 181 180 226 181 173 275 268 275 258 
          268 258 173 259 173 268 259 268 258 259 
          174 182 175 175 278 269 174 175 262 175 
          269 262 174 262 261 262 269 261 269 278 
          261 182 174 260 174 261 260 261 278 260 