<!--Convex Hulls Aggregates Visualization-->
<VTKFile type="UnstructuredGrid" byte_order="LittleEndian">
  <UnstructuredGrid>
    <Piece NumberOfPoints="846" NumberOfCells="1172">
      <PointData Scalars="Node Aggregate Processor">
        <DataArray type="Int32" Name="Node" format="ascii">
          0 1 2 4 5 7 8 9 10 11
          12 13 14 15 16 17 18 19 20 22
          23 25 26 28 29 30 31 32 33 34
          35 36 37 38 41 42 44 45 47 48
          49 50 51 52 53 54 55 56 57 59
          60 62 63 65 66 67 68 69 70 71
          72 73 74 75 77 78 81 82 84 85
          86 87 88 89 90 91 92 93 94 96
          97 99 100 101 102 103 104 105 106 107
          108 109 110 111 113 114 116 117 119 120
          121 123 124 126 127 128 129 130 131 132
          133 134 135 136 137 138 139 140 141 142
          143 144 145 146 147 148 149 150 151 153
          154 156 157 158 159 160 161 162 163 164
          165 166 168 169 170 171 172 173 174 175
          176 177 178 179 180 181 182 183 184 185
          186 187 188 189 190 192 193 194 195 196
          197 198 199 200 202 203 205 206 208 209
          210 211 212 213 214 215 216 217 218 219
          221 222 224 225 227 228 230 231 232 233
          234 235 236 237 238 239 240 242 243 245
          246 248 249 251 252 253 254 255 256 257
          258 261 262 264 265 266 267 268 269 270
          271 272 273 274 276 277 279 280 281 283
          285 286 287 288 289 290 291 292 293 295
          296 298 299 300 301 302 303 304 305 306
          307 308 310 311 312 313 314 315 316 317
          318 319 320 321 323 324 326 327 328 329
          330 331 333 334 336 337 339 340 341 342
          343 344 345 346 347 348 349 350 351 352
          353 354 355 357 358 359 360 361 362 363
          364 365 366 367 368 369 370 372 373 374
          375 376 377 378 379 381 382 384 385 387
          388 391 392 393 394 395 396 397 398 399
          401 402 404 405 407 408 409 410 411 412
          413 414 415 416 417 419 420 422 423 425
          426 427 428 429 430 431 432 433 434 435
          436 437 438 439 441 442 444 445 446 447
          448 450 451 452 453 454 455 456 457 458
          459 460 461 463 464 466 467 469 470 471
          472 473 474 475 476 477 478 479 480 481
          482 484 485 486 487 488 489 490 491 492
          493 494 496 497 499 500 501 502 503 504
          505 506 507 508 509 510 511 513 514 516
          517 518 520 521 522 523 524 525 526 528
          529 530 531 532 533 534 535 536 537 538
          539 540 541 542 543 544 546 547 548 549
          550 552 553 554 555 556 558 559 561 562
          563 564 565 566 567 568 569 571 572 573
          575 576 577 578 580 581 582 583 584 585
          586 588 589 590 592 593 594 595 596 597
          598 599 600 602 603 605 606 608 609 610
          611 612 613 614 615 616 617 618 621 622
          624 625 626 627 628 629 630 631 632 633
          634 635 637 638 639 640 641 643 644 645
          646 647 649 650 651 652 653 655 656 657
          658 659 660 661 662 663 664 665 667 668
          669 670 671 673 674 675 676 677 678 679
          680 681 682 683 684 686 687 688 689 690
          691 692 694 695 696 697 698 700 701 702
          703 704 705 706 707 708 709 710 711 712
          713 714 715 717 718 719 720 721 722 723
          724 725 726 727 729 730 732 733 735 736
          737 738 739 741 742 743 744 745 746 747
          748 749 751 752 753 754 755 756 757 760
          761 762 764 765 766 767 769 770 771 772
          773 774 775 776 778 779 781 782 783 784
          785 786 787 788 789 790 791 792 793 794
          795 797 798 799 801 802 804 805 806 807
          810 811 812 814 815 816 817 818 819 820
          821 823 824 826 827 828 830 831 832 833
          835 836 838 839 840 841 842 844 845 846
          847 848 849 850 851 852 853 854 856 857
          858 860 862 863 864 865 866 867 870 871
          872 873 875 876 877 878 880 881 883 884
          885 886 887 888 890 891 892 893 895 896
          897 898 899 900 901 902 903 904 906 907
          908 909 910 912 913 914 915 916 918 919
          920 921 922 923 924 925 926 927 928 931
          932 933 934 935 936 937 938 940 941 942
          943 944 945 947 948 949 950 951 953 954
          955 956 957 958 959 961 962 963 964 965
          967 969 971 972 973 974 975 977 978 979
          980 981 982 983 984 985 986 987 988 990
          992 993 995 996 998 999
        </DataArray>
        <DataArray type="Int32" Name="Aggregate" format="ascii">
          0 0 1 1 2 2 3 3 0 4
          20 1 5 21 2 6 22 3 4 4
          5 5 6 6 7 8 4 4 9 5
          5 10 6 7 8 9 9 10 10 11
          7 8 12 23 9 13 24 10 11 11
          12 12 13 13 14 25 11 15 16 12
          12 17 13 14 14 15 16 17 17 18
          14 14 19 15 16 26 17 17 18 18
          19 19 0 27 20 1 28 21 2 29
          22 3 0 20 20 21 21 22 22 30
          4 31 5 32 6 22 33 8 34 20
          9 35 21 10 6 7 7 8 34 23
          9 35 24 10 36 11 37 38 23 23
          24 24 25 11 37 38 12 23 39 13
          24 25 25 15 16 12 42 39 13 40
          14 25 41 15 16 26 42 17 43 18
          14 44 19 15 26 26 17 43 18 18
          44 19 19 27 27 28 28 29 29 45
          30 27 20 31 28 21 32 29 22 33
          30 31 31 32 32 33 30 34 46 31
          35 47 32 36 48 33 34 34 35 35
          36 36 37 34 23 39 35 24 49 36
          37 38 39 39 40 25 25 41 37 38
          50 42 39 40 40 41 41 53 42 42
          40 51 44 41 52 53 26 42 43 43
          44 44 52 54 27 27 55 28 28 56
          29 45 30 58 46 31 59 47 32 29
          57 45 30 58 31 59 32 48 48 33
          60 46 46 47 47 48 48 60 34 46
          61 35 47 49 36 48 62 38 34 63
          61 35 49 49 65 37 38 50 63 39
          64 64 49 49 65 37 50 50 66 40
          40 51 41 41 52 50 42 43 51 51
          52 53 42 66 43 67 51 44 68 52
          54 55 55 56 56 57 45 54 58 69
          55 59 70 56 57 57 58 58 59 59
          71 71 57 57 60 58 46 61 59 47
          47 48 48 62 60 61 61 72 72 74
          62 60 73 63 61 61 64 49 74 65
          62 75 63 63 64 64 65 65 75 50
          63 66 76 64 51 78 65 77 53 50
          66 66 67 51 78 68 52 53 79 79
          66 67 67 68 68 54 80 69 55 81
          70 56 82 82 83 54 69 69 70 70
          71 57 84 58 69 85 59 70 71 71
          83 84 58 87 85 59 72 86 71 88
          62 60 73 87 61 72 72 74 88 62
          73 73 89 89 72 74 74 62 73 63
          76 76 64 90 74 65 77 75 91 76
          76 90 78 77 75 79 91 66 76 92
          78 78 77 79 79 93 67 67 67 78
          68 94 80 80 81 81 82 82 83 84
          80 69 85 81 70 95 82 83 84 85
          85 70 86 71 96 83 84 97 87 85
          98 86 86 88 88 99 87 87 89 72
          86 88 88 99 73 87 89 89 90 74
          88 100 75 73 91 101 89 90 90 114
          77 75 91 91 76 92 90 102 102 77
          103 103 91 93 92 92 78 94 94 79
          79 93 93 92 104 104 94 105 80 80
          106 81 81 95 82 107 107 105 80 108
          106 81 95 95 96 83 84 97 108 85
          98 109 95 96 96 97 97 98 98 86
          110 96 96 97 87 111 98 98 86 110
          88 100 99 101 101 89 112 112 100 99
          113 101 101 90 90 102 100 103 113 91
          101 115 92 102 102 117 103 116 93 115
          92 104 102 102 117 103 103 116 93 93
          104 104 94 94 105 106 106 118 95 107
          105 119 108 109 109 95 120 107 121 122
          108 108 109 109 110 96 122 97 108 111
          109 110 110 121 99 97 111 111 112 123
          110 110 100 99 113 124 111 112 112 114
          114 113 113 101 115 112 126 114 125 113
          116 115 115 126 102 114 103 116 116 115
          115 104 129 117 127 127 116 128 128 104
          129 117 117 105 119 119 106 118 118 120
          107 107 119 119 106 118 118 120 120 121
          122 119 108 108 109 109 120 120 121 122
          108 111 98 123 123 110 110 122 124 124
          111 111 123 123 110 121 125 124 124 112
          112 123 123 114 100 113 124 124 115 126
          126 114 125 116 115 115 126 126 114 117
          125 127 116 116 128 128 126 129 129 127
          127 128 128 129 129 117
        </DataArray>
        <DataArray type="Int32" Name="Processor" format="ascii">
          0 0 0 0 0 0 0 0 0 0 0 0 0 0 0 0 0 0 0 0
          0 0 0 0 0 0 0 0 0 0 0 0 0 0 0 0 0 0 0 0
          0 0 0 0 0 0 0 0 0 0 0 0 0 0 0 0 0 0 0 0
          0 0 0 0 0 0 0 0 0 0 0 0 0 0 0 0 0 0 0 0
          0 0 0 0 0 0 0 0 0 0 0 0 0 0 0 0 0 0 0 0
          0 0 0 0 0 0 0 0 0 0 0 0 0 0 0 0 0 0 0 0
          0 0 0 0 0 0 0 0 0 0 0 0 0 0 0 0 0 0 0 0
          0 0 0 0 0 0 0 0 0 0 0 0 0 0 0 0 0 0 0 0
          0 0 0 0 0 0 0 0 0 0 0 0 0 0 0 0 0 0 0 0
          0 0 0 0 0 0 0 0 0 0 0 0 0 0 0 0 0 0 0 0
          0 0 0 0 0 0 0 0 0 0 0 0 0 0 0 0 0 0 0 0
          0 0 0 0 0 0 0 0 0 0 0 0 0 0 0 0 0 0 0 0
          0 0 0 0 0 0 0 0 0 0 0 0 0 0 0 0 0 0 0 0
          0 0 0 0 0 0 0 0 0 0 0 0 0 0 0 0 0 0 0 0
          0 0 0 0 0 0 0 0 0 0 0 0 0 0 0 0 0 0 0 0
          0 0 0 0 0 0 0 0 0 0 0 0 0 0 0 0 0 0 0 0
          0 0 0 0 0 0 0 0 0 0 0 0 0 0 0 0 0 0 0 0
          0 0 0 0 0 0 0 0 0 0 0 0 0 0 0 0 0 0 0 0
          0 0 0 0 0 0 0 0 0 0 0 0 0 0 0 0 0 0 0 0
          0 0 0 0 0 0 0 0 0 0 0 0 0 0 0 0 0 0 0 0
          0 0 0 0 0 0 0 0 0 0 0 0 0 0 0 0 0 0 0 0
          0 0 0 0 0 0 0 0 0 0 0 0 0 0 0 0 0 0 0 0
          0 0 0 0 0 0 0 0 0 0 0 0 0 0 0 0 0 0 0 0
          0 0 0 0 0 0 0 0 0 0 0 0 0 0 0 0 0 0 0 0
          0 0 0 0 0 0 0 0 0 0 0 0 0 0 0 0 0 0 0 0
          0 0 0 0 0 0 0 0 0 0 0 0 0 0 0 0 0 0 0 0
          0 0 0 0 0 0 0 0 0 0 0 0 0 0 0 0 0 0 0 0
          0 0 0 0 0 0 0 0 0 0 0 0 0 0 0 0 0 0 0 0
          0 0 0 0 0 0 0 0 0 0 0 0 0 0 0 0 0 0 0 0
          0 0 0 0 0 0 0 0 0 0 0 0 0 0 0 0 0 0 0 0
          0 0 0 0 0 0 0 0 0 0 0 0 0 0 0 0 0 0 0 0
          0 0 0 0 0 0 0 0 0 0 0 0 0 0 0 0 0 0 0 0
          0 0 0 0 0 0 0 0 0 0 0 0 0 0 0 0 0 0 0 0
          0 0 0 0 0 0 0 0 0 0 0 0 0 0 0 0 0 0 0 0
          0 0 0 0 0 0 0 0 0 0 0 0 0 0 0 0 0 0 0 0
          0 0 0 0 0 0 0 0 0 0 0 0 0 0 0 0 0 0 0 0
          0 0 0 0 0 0 0 0 0 0 0 0 0 0 0 0 0 0 0 0
          0 0 0 0 0 0 0 0 0 0 0 0 0 0 0 0 0 0 0 0
          0 0 0 0 0 0 0 0 0 0 0 0 0 0 0 0 0 0 0 0
          0 0 0 0 0 0 0 0 0 0 0 0 0 0 0 0 0 0 0 0
          0 0 0 0 0 0 0 0 0 0 0 0 0 0 0 0 0 0 0 0
          0 0 0 0 0 0 0 0 0 0 0 0 0 0 0 0 0 0 0 0
          0 0 0 0 0 0
        </DataArray>
        <DataArray type="Float64" Name="Quality" format="ascii">
          4.71117 4.71117 6 6 6 6 4 4 4.71117 12.2679
          26.5197 6 12.2712 26.5197 6 11.8886 12 4 12.2679 12.2679
          12.2712 12.2712 11.8886 11.8886 8.08168 6.35236 12.2679 12.2679 11.8886 12.2712
          12.2712 11.8886 11.8886 8.08168 6.35236 11.8886 11.8886 11.8886 11.8886 11.7696
          8.08168 6.35236 11.3048 12 11.8886 11.8886 12 11.8886 11.7696 11.7696
          11.3048 11.3048 11.8886 11.8886 11.377 17.0714 11.7696 6.37469 6.34127 11.3048
          11.3048 7.93153 11.8886 11.377 11.377 6.37469 6.34127 7.93153 7.93153 7.81935
          11.377 11.377 7.70682 6.37469 6.34127 11.5945 7.93153 7.93153 7.81935 7.81935
          7.70682 7.70682 4.71117 12.2679 26.5197 6 12.2712 26.5197 6 11.8886
          12 4 4.71117 26.5197 26.5197 26.5197 26.5197 12 12 12.2712
          12.2679 17.0714 12.2712 17.0714 11.8886 12 11.6108 6.35236 20.4853 26.5197
          11.8886 20.4853 26.5197 11.8886 11.8886 8.08168 8.08168 6.35236 20.4853 12
          11.8886 20.4853 12 11.8886 12 11.7696 12.6149 12.6881 12 12
          12 12 17.0714 11.7696 12.6149 12.6881 11.3048 12 17.0714 11.8886
          12 17.0714 17.0714 6.37469 6.34127 11.3048 20.2353 17.0714 11.8886 17.0714
          11.377 17.0714 17.0714 6.37469 6.34127 11.5945 20.2353 7.93153 10.3627 7.81935
          11.377 11.8886 7.70682 6.37469 11.5945 11.5945 7.93153 10.3627 7.81935 7.81935
          11.8886 7.70682 7.70682 12.2679 12.2679 12.2712 12.2712 11.8886 11.8886 6
          12.2712 12.2679 26.5197 17.0714 12.2712 26.5197 17.0714 11.8886 12 11.6108
          12.2712 17.0714 17.0714 17.0714 17.0714 11.6108 12.2712 20.4853 26.5197 17.0714
          20.4853 28.2698 17.0714 12 16.5294 11.6108 20.4853 20.4853 20.4853 20.4853
          12 12 12.6149 20.4853 12 17.0714 20.4853 12 17.0714 12
          12.6149 12.6881 17.0714 17.0714 17.0714 17.0714 17.0714 17.0714 12.6149 12.6881
          17.0714 20.2353 17.0714 17.0714 17.0714 17.0714 17.0714 6.37469 20.2353 20.2353
          17.0714 17.0714 11.8886 17.0714 12.1555 6.37469 11.5945 20.2353 10.3627 10.3627
          11.8886 11.8886 12.1555 6.35236 12.2679 12.2679 11.6108 12.2712 12.2712 11.6108
          11.8886 6 12.2712 20.4853 26.5197 17.0714 20.4853 28.2698 17.0714 11.8886
          14.5568 6 12.2712 20.4853 17.0714 20.4853 17.0714 16.5294 16.5294 11.6108
          12.2712 26.5197 26.5197 28.2698 28.2698 16.5294 16.5294 12.2712 20.4853 26.5197
          16.5294 20.4853 28.2698 17.0714 12 16.5294 12.6881 12.6881 20.4853 17.0714
          16.5294 20.4853 17.0714 17.0714 17.0714 12.6149 12.6881 17.0714 17.0714 17.0714
          17.0714 17.0714 17.0714 17.0714 17.0714 12.6149 17.0714 17.0714 16.3034 17.0714
          17.0714 17.0714 17.0714 17.0714 12.1555 17.0714 20.2353 10.3627 17.0714 17.0714
          12.1555 6.37469 20.2353 16.3034 10.3627 12.6881 17.0714 11.8886 11.6029 12.1555
          6.35236 11.6108 11.6108 11.6108 11.6108 14.5568 6 6.35236 20.4853 12
          11.6108 20.4853 17.0714 11.6108 14.5568 14.5568 20.4853 20.4853 20.4853 20.4853
          17.0714 17.0714 14.5568 14.5568 12.2712 20.4853 26.5197 16.5294 20.4853 28.2698
          28.2698 16.5294 16.5294 12.6881 12.2712 16.5294 16.5294 17.0714 17.0714 17.0714
          12.6881 12.2712 17.0714 17.0714 16.5294 16.5294 17.0714 17.0714 17.0714 17.0714
          12.6881 12.6881 17.0714 17.0714 17.0714 17.0714 17.0714 17.0714 12.6881 17.0714
          17.0714 16.3034 17.0714 17.0714 17.0714 17.0714 17.0714 12.2712 6.37469 17.0714
          16.3034 16.3034 12.6881 17.0714 17.0714 11.6029 12.1555 6.37469 12.5778 12.5778
          16.3034 12.6881 12.6881 11.6029 11.6029 6.35236 11.3048 12 11.6108 11.377
          17.0714 11.6108 12.2712 12.2712 12.6294 6.35236 12 12 17.0714 17.0714
          17.0714 14.5568 12.2712 20.4853 12 17.0714 20.4853 17.0714 17.0714 17.0714
          12.6294 12.2712 20.4853 17.0714 17.0714 20.4853 17.0714 17.0714 17.0714 16.3034
          12.6881 12.2712 17.0714 17.0714 16.5294 17.0714 17.0714 17.0714 16.3034 12.6881
          17.0714 17.0714 17.0714 17.0714 17.0714 17.0714 17.0714 12.6881 17.0714 17.0714
          17.0714 17.0714 17.0714 20.4853 17.0714 17.0714 12.2712 12.6881 17.0714 17.0714
          17.0714 20.4853 17.0714 12.2712 12.6881 12.5778 17.0714 16.3034 17.0714 17.0714
          17.0714 17.0714 12.2712 12.5778 12.5778 11.377 12.6881 12.6881 12.6881 17.0714
          11.6029 7.81935 11.3048 11.3048 11.377 11.377 12.2712 12.2712 12.6294 12.2712
          11.3048 12 17.0714 11.377 17.0714 16.7407 12.2712 12.6294 12.2712 17.0714
          17.0714 17.0714 17.0714 17.0714 16.7407 12.6294 12.2712 17.0714 17.0714 17.0714
          28.2698 17.0714 17.0714 16.3034 16.3034 12.6881 17.0714 17.0714 17.0714 17.0714
          17.0714 16.3034 16.3034 12.6881 17.0714 17.0714 17.0714 17.0714 20.4853 17.0714
          16.3034 27.9796 12.6881 17.0714 17.0714 17.0714 17.0714 20.4853 20.4853 30.2733
          12.2712 12.6881 17.0714 17.0714 17.0714 17.0714 20.4853 16.5294 16.5294 12.2712
          9.53799 9.53799 17.0714 11.377 17.0714 17.0714 17.0714 7.81935 7.81935 12.5778
          12.5778 11.377 11.377 17.0714 13.2172 13.2172 7.81935 6.34127 11.3048 11.3048
          9.53799 11.377 11.377 16.7407 12.2712 12.5415 12.5415 6.34127 11.3048 21.4164
          9.53799 11.377 16.7407 16.7407 16.7407 12.6294 12.2712 17.0714 21.4164 17.0714
          28.2698 16.3034 16.7407 16.7407 16.7407 17.0714 17.0714 28.2698 28.2698 17.0714
          17.686 16.7407 16.7407 17.0714 17.0714 16.423 28.2698 28.2698 17.0714 17.686
          16.3034 27.9796 12.6881 17.0714 17.0714 17.0714 20.2353 20.2353 27.9796 12.6881
          17.0714 17.0714 17.0714 20.4853 20.4853 16.5294 27.9796 9.53799 17.0714 17.0714
          17.0714 23.0102 17.0714 16.5294 16.5294 8.71109 9.53799 13.2233 11.377 23.0102
          17.0714 13.2172 16.5294 16.5294 8.71109 9.53799 9.53799 13.2233 11.377 11.377
          13.2172 13.2172 7.81935 7.81935 6.34127 9.53799 9.53799 6.35236 16.7407 12.5415
          6.34127 12.1544 21.4164 16.3034 16.3034 16.7407 12.2679 12.5415 6.38316 6.35236
          21.4164 21.4164 16.3034 16.3034 17.686 16.7407 6.35236 17.0714 21.4164 16.423
          16.3034 17.686 17.686 6.38316 12.6881 17.0714 16.423 16.423 20.2353 12.6149
          17.686 17.686 27.9796 12.6881 17.0714 12.6149 16.423 20.2353 20.2353 30.2733
          30.2733 17.0714 17.0714 17.0714 23.0102 20.2353 11.3242 30.2733 6 17.0714
          13.2233 23.0102 23.0102 11.3242 16.5294 30.2733 9.53799 13.2233 13.2233 23.0102
          23.0102 13.2172 7.81935 8.71109 5.92419 5.92419 13.2233 6.37429 6.37429 13.2172
          7.81935 8.71109 8.71109 6.34127 12.1544 12.1544 9.53799 6.35236 6.35236 12.2679
          12.5415 12.5415 12.1544 12.1544 9.53799 6.35236 6.35236 12.2679 12.2679 6.38316
          6.35236 12.1544 21.4164 21.4164 16.3034 16.3034 12.2679 12.2679 6.38316 6.35236
          21.4164 16.423 28.2698 12.6149 12.6149 17.686 17.686 6.35236 12.6149 12.6149
          16.423 16.423 12.6149 12.6149 17.686 6.38316 6 12.6149 12.6149 20.2353
          20.2353 12.6149 12.6149 30.2733 27.9796 17.0714 12.6149 12.6149 23.0102 11.3242
          11.3242 30.2733 6 13.2233 23.0102 23.0102 11.3242 11.3242 30.2733 8.71109
          6 5.92419 13.2233 13.2233 6.37429 6.37429 11.3242 7.81935 7.81935 5.92419
          5.92419 6.37429 6.37429 7.81935 7.81935 8.71109
        </DataArray>
      </PointData>
      <Points>
        <DataArray type="Float64" NumberOfComponents="3" format="ascii">
          0 0 0 0.111111 0 0 0.222222 0 0
          0.444444 0 0 0.555556 0 0 0.777778 0 0
          0.888889 0 0 1 0 0 0 0.111111 0
          0.111111 0.111111 0 0.222222 0.111111 0 0.333333 0.111111 0
          0.444444 0.111111 0 0.555556 0.111111 0 0.666667 0.111111 0
          0.777778 0.111111 0 0.888889 0.111111 0 1 0.111111 0
          0 0.222222 0 0.222222 0.222222 0 0.333333 0.222222 0
          0.555556 0.222222 0 0.666667 0.222222 0 0.888889 0.222222 0
          1 0.222222 0 0 0.333333 0 0.111111 0.333333 0
          0.222222 0.333333 0 0.333333 0.333333 0 0.444444 0.333333 0
          0.555556 0.333333 0 0.666667 0.333333 0 0.777778 0.333333 0
          0.888889 0.333333 0 0.111111 0.444444 0 0.222222 0.444444 0
          0.444444 0.444444 0 0.555556 0.444444 0 0.777778 0.444444 0
          0.888889 0.444444 0 1 0.444444 0 0 0.555556 0
          0.111111 0.555556 0 0.222222 0.555556 0 0.333333 0.555556 0
          0.444444 0.555556 0 0.555556 0.555556 0 0.666667 0.555556 0
          0.777778 0.555556 0 1 0.555556 0 0 0.666667 0
          0.222222 0.666667 0 0.333333 0.666667 0 0.555556 0.666667 0
          0.666667 0.666667 0 0.777778 0.666667 0 0.888889 0.666667 0
          1 0.666667 0 0 0.777778 0 0.111111 0.777778 0
          0.222222 0.777778 0 0.333333 0.777778 0 0.444444 0.777778 0
          0.555556 0.777778 0 0.777778 0.777778 0 0.888889 0.777778 0
          0.111111 0.888889 0 0.222222 0.888889 0 0.444444 0.888889 0
          0.555556 0.888889 0 0.666667 0.888889 0 0.777778 0.888889 0
          0.888889 0.888889 0 1 0.888889 0 0 1 0
          0.111111 1 0 0.222222 1 0 0.333333 1 0
          0.444444 1 0 0.666667 1 0 0.777778 1 0
          1 1 0 0 0 0.111111 0.111111 0 0.111111
          0.222222 0 0.111111 0.333333 0 0.111111 0.444444 0 0.111111
          0.555556 0 0.111111 0.666667 0 0.111111 0.777778 0 0.111111
          0.888889 0 0.111111 1 0 0.111111 0 0.111111 0.111111
          0.111111 0.111111 0.111111 0.333333 0.111111 0.111111 0.444444 0.111111 0.111111
          0.666667 0.111111 0.111111 0.777778 0.111111 0.111111 1 0.111111 0.111111
          0 0.222222 0.111111 0.111111 0.222222 0.111111 0.333333 0.222222 0.111111
          0.444444 0.222222 0.111111 0.666667 0.222222 0.111111 0.777778 0.222222 0.111111
          0.888889 0.222222 0.111111 1 0.222222 0.111111 0 0.333333 0.111111
          0.111111 0.333333 0.111111 0.222222 0.333333 0.111111 0.333333 0.333333 0.111111
          0.444444 0.333333 0.111111 0.555556 0.333333 0.111111 0.666667 0.333333 0.111111
          0.777778 0.333333 0.111111 0.888889 0.333333 0.111111 1 0.333333 0.111111
          0 0.444444 0.111111 0.111111 0.444444 0.111111 0.222222 0.444444 0.111111
          0.333333 0.444444 0.111111 0.444444 0.444444 0.111111 0.555556 0.444444 0.111111
          0.666667 0.444444 0.111111 0.777778 0.444444 0.111111 0.888889 0.444444 0.111111
          1 0.444444 0.111111 0 0.555556 0.111111 0.111111 0.555556 0.111111
          0.333333 0.555556 0.111111 0.444444 0.555556 0.111111 0.666667 0.555556 0.111111
          0.777778 0.555556 0.111111 0.888889 0.555556 0.111111 1 0.555556 0.111111
          0 0.666667 0.111111 0.111111 0.666667 0.111111 0.222222 0.666667 0.111111
          0.333333 0.666667 0.111111 0.444444 0.666667 0.111111 0.555556 0.666667 0.111111
          0.666667 0.666667 0.111111 0.888889 0.666667 0.111111 1 0.666667 0.111111
          0 0.777778 0.111111 0.111111 0.777778 0.111111 0.222222 0.777778 0.111111
          0.333333 0.777778 0.111111 0.444444 0.777778 0.111111 0.555556 0.777778 0.111111
          0.666667 0.777778 0.111111 0.777778 0.777778 0.111111 0.888889 0.777778 0.111111
          1 0.777778 0.111111 0 0.888889 0.111111 0.111111 0.888889 0.111111
          0.222222 0.888889 0.111111 0.333333 0.888889 0.111111 0.444444 0.888889 0.111111
          0.555556 0.888889 0.111111 0.666667 0.888889 0.111111 0.777778 0.888889 0.111111
          0.888889 0.888889 0.111111 1 0.888889 0.111111 0 1 0.111111
          0.222222 1 0.111111 0.333333 1 0.111111 0.444444 1 0.111111
          0.555556 1 0.111111 0.666667 1 0.111111 0.777778 1 0.111111
          0.888889 1 0.111111 1 1 0.111111 0 0 0.222222
          0.222222 0 0.222222 0.333333 0 0.222222 0.555556 0 0.222222
          0.666667 0 0.222222 0.888889 0 0.222222 1 0 0.222222
          0 0.111111 0.222222 0.111111 0.111111 0.222222 0.222222 0.111111 0.222222
          0.333333 0.111111 0.222222 0.444444 0.111111 0.222222 0.555556 0.111111 0.222222
          0.666667 0.111111 0.222222 0.777778 0.111111 0.222222 0.888889 0.111111 0.222222
          1 0.111111 0.222222 0.111111 0.222222 0.222222 0.222222 0.222222 0.222222
          0.444444 0.222222 0.222222 0.555556 0.222222 0.222222 0.777778 0.222222 0.222222
          0.888889 0.222222 0.222222 0 0.333333 0.222222 0.111111 0.333333 0.222222
          0.222222 0.333333 0.222222 0.333333 0.333333 0.222222 0.444444 0.333333 0.222222
          0.555556 0.333333 0.222222 0.666667 0.333333 0.222222 0.777778 0.333333 0.222222
          0.888889 0.333333 0.222222 1 0.333333 0.222222 0 0.444444 0.222222
          0.222222 0.444444 0.222222 0.333333 0.444444 0.222222 0.555556 0.444444 0.222222
          0.666667 0.444444 0.222222 0.888889 0.444444 0.222222 1 0.444444 0.222222
          0.111111 0.555556 0.222222 0.222222 0.555556 0.222222 0.333333 0.555556 0.222222
          0.444444 0.555556 0.222222 0.555556 0.555556 0.222222 0.666667 0.555556 0.222222
          0.777778 0.555556 0.222222 0.888889 0.555556 0.222222 0.111111 0.666667 0.222222
          0.222222 0.666667 0.222222 0.444444 0.666667 0.222222 0.555556 0.666667 0.222222
          0.666667 0.666667 0.222222 0.777778 0.666667 0.222222 0.888889 0.666667 0.222222
          1 0.666667 0.222222 0 0.777778 0.222222 0.111111 0.777778 0.222222
          0.222222 0.777778 0.222222 0.333333 0.777778 0.222222 0.444444 0.777778 0.222222
          0.666667 0.777778 0.222222 0.777778 0.777778 0.222222 1 0.777778 0.222222
          0 0.888889 0.222222 0.111111 0.888889 0.222222 0.333333 0.888889 0.222222
          0.555556 0.888889 0.222222 0.666667 0.888889 0.222222 0.777778 0.888889 0.222222
          0.888889 0.888889 0.222222 1 0.888889 0.222222 0 1 0.222222
          0.111111 1 0.222222 0.222222 1 0.222222 0.333333 1 0.222222
          0.555556 1 0.222222 0.666667 1 0.222222 0.888889 1 0.222222
          1 1 0.222222 0 0 0.333333 0.111111 0 0.333333
          0.222222 0 0.333333 0.333333 0 0.333333 0.444444 0 0.333333
          0.555556 0 0.333333 0.666667 0 0.333333 0.777778 0 0.333333
          0.888889 0 0.333333 0 0.111111 0.333333 0.111111 0.111111 0.333333
          0.222222 0.111111 0.333333 0.333333 0.111111 0.333333 0.444444 0.111111 0.333333
          0.555556 0.111111 0.333333 0.666667 0.111111 0.333333 0.777778 0.111111 0.333333
          0.888889 0.111111 0.333333 1 0.111111 0.333333 0 0.222222 0.333333
          0.111111 0.222222 0.333333 0.333333 0.222222 0.333333 0.444444 0.222222 0.333333
          0.666667 0.222222 0.333333 0.777778 0.222222 0.333333 0.888889 0.222222 0.333333
          1 0.222222 0.333333 0 0.333333 0.333333 0.111111 0.333333 0.333333
          0.333333 0.333333 0.333333 0.444444 0.333333 0.333333 0.666667 0.333333 0.333333
          0.777778 0.333333 0.333333 1 0.333333 0.333333 0 0.444444 0.333333
          0.111111 0.444444 0.333333 0.222222 0.444444 0.333333 0.333333 0.444444 0.333333
          0.444444 0.444444 0.333333 0.555556 0.444444 0.333333 0.666667 0.444444 0.333333
          0.777778 0.444444 0.333333 0.888889 0.444444 0.333333 1 0.444444 0.333333
          0 0.555556 0.333333 0.111111 0.555556 0.333333 0.222222 0.555556 0.333333
          0.333333 0.555556 0.333333 0.444444 0.555556 0.333333 0.555556 0.555556 0.333333
          0.777778 0.555556 0.333333 0.888889 0.555556 0.333333 1 0.555556 0.333333
          0 0.666667 0.333333 0.111111 0.666667 0.333333 0.222222 0.666667 0.333333
          0.333333 0.666667 0.333333 0.444444 0.666667 0.333333 0.555556 0.666667 0.333333
          0.666667 0.666667 0.333333 0.777778 0.666667 0.333333 0.888889 0.666667 0.333333
          1 0.666667 0.333333 0 0.777778 0.333333 0.222222 0.777778 0.333333
          0.333333 0.777778 0.333333 0.444444 0.777778 0.333333 0.555556 0.777778 0.333333
          0.666667 0.777778 0.333333 0.777778 0.777778 0.333333 0.888889 0.777778 0.333333
          1 0.777778 0.333333 0.111111 0.888889 0.333333 0.222222 0.888889 0.333333
          0.444444 0.888889 0.333333 0.555556 0.888889 0.333333 0.777778 0.888889 0.333333
          0.888889 0.888889 0.333333 0.111111 1 0.333333 0.222222 1 0.333333
          0.333333 1 0.333333 0.444444 1 0.333333 0.555556 1 0.333333
          0.666667 1 0.333333 0.777778 1 0.333333 0.888889 1 0.333333
          1 1 0.333333 0.111111 0 0.444444 0.222222 0 0.444444
          0.444444 0 0.444444 0.555556 0 0.444444 0.777778 0 0.444444
          0.888889 0 0.444444 1 0 0.444444 0 0.111111 0.444444
          0.111111 0.111111 0.444444 0.222222 0.111111 0.444444 0.333333 0.111111 0.444444
          0.444444 0.111111 0.444444 0.555556 0.111111 0.444444 0.666667 0.111111 0.444444
          0.777778 0.111111 0.444444 1 0.111111 0.444444 0 0.222222 0.444444
          0.222222 0.222222 0.444444 0.333333 0.222222 0.444444 0.555556 0.222222 0.444444
          0.666667 0.222222 0.444444 0.777778 0.222222 0.444444 0.888889 0.222222 0.444444
          1 0.222222 0.444444 0 0.333333 0.444444 0.111111 0.333333 0.444444
          0.222222 0.333333 0.444444 0.333333 0.333333 0.444444 0.444444 0.333333 0.444444
          0.555556 0.333333 0.444444 0.666667 0.333333 0.444444 0.777778 0.333333 0.444444
          0.888889 0.333333 0.444444 1 0.333333 0.444444 0.111111 0.444444 0.444444
          0.222222 0.444444 0.444444 0.444444 0.444444 0.444444 0.555556 0.444444 0.444444
          0.666667 0.444444 0.444444 0.777778 0.444444 0.444444 0.888889 0.444444 0.444444
          0 0.555556 0.444444 0.111111 0.555556 0.444444 0.222222 0.555556 0.444444
          0.333333 0.555556 0.444444 0.444444 0.555556 0.444444 0.555556 0.555556 0.444444
          0.666667 0.555556 0.444444 0.777778 0.555556 0.444444 0.888889 0.555556 0.444444
          1 0.555556 0.444444 0 0.666667 0.444444 0.111111 0.666667 0.444444
          0.333333 0.666667 0.444444 0.444444 0.666667 0.444444 0.666667 0.666667 0.444444
          0.777778 0.666667 0.444444 1 0.666667 0.444444 0 0.777778 0.444444
          0.111111 0.777778 0.444444 0.222222 0.777778 0.444444 0.333333 0.777778 0.444444
          0.444444 0.777778 0.444444 0.555556 0.777778 0.444444 0.666667 0.777778 0.444444
          0.777778 0.777778 0.444444 0.888889 0.777778 0.444444 1 0.777778 0.444444
          0 0.888889 0.444444 0.111111 0.888889 0.444444 0.222222 0.888889 0.444444
          0.444444 0.888889 0.444444 0.555556 0.888889 0.444444 0.666667 0.888889 0.444444
          0.777778 0.888889 0.444444 0.888889 0.888889 0.444444 1 0.888889 0.444444
          0 1 0.444444 0.111111 1 0.444444 0.222222 1 0.444444
          0.333333 1 0.444444 0.444444 1 0.444444 0.666667 1 0.444444
          0.777778 1 0.444444 1 1 0.444444 0 0 0.555556
          0.111111 0 0.555556 0.222222 0 0.555556 0.333333 0 0.555556
          0.444444 0 0.555556 0.555556 0 0.555556 0.666667 0 0.555556
          0.777778 0 0.555556 0.888889 0 0.555556 1 0 0.555556
          0 0.111111 0.555556 0.111111 0.111111 0.555556 0.333333 0.111111 0.555556
          0.444444 0.111111 0.555556 0.666667 0.111111 0.555556 0.777778 0.111111 0.555556
          0.888889 0.111111 0.555556 0 0.222222 0.555556 0.111111 0.222222 0.555556
          0.222222 0.222222 0.555556 0.333333 0.222222 0.555556 0.444444 0.222222 0.555556
          0.555556 0.222222 0.555556 0.666667 0.222222 0.555556 0.888889 0.222222 0.555556
          1 0.222222 0.555556 0 0.333333 0.555556 0.111111 0.333333 0.555556
          0.222222 0.333333 0.555556 0.333333 0.333333 0.555556 0.444444 0.333333 0.555556
          0.555556 0.333333 0.555556 0.666667 0.333333 0.555556 0.777778 0.333333 0.555556
          0.888889 0.333333 0.555556 1 0.333333 0.555556 0 0.444444 0.555556