<!--Point Cloud Aggregates Visualization-->
<VTKFile type="UnstructuredGrid" byte_order="LittleEndian">
  <UnstructuredGrid>
    <Piece NumberOfPoints="250" NumberOfCells="250">
      <PointData Scalars="Node Aggregate Processor">
        <DataArray type="Int32" Name="Node" format="ascii">
          0 1 2 3 4 10 11 12 13 14
          20 21 22 23 24 30 31 32 33 34
          40 41 42 43 44 100 101 102 103 104
          110 111 112 113 114 120 121 122 123 124
          130 131 132 133 134 140 141 142 143 144
          200 201 202 203 204 210 211 212 213 214
          220 221 222 223 224 230 231 232 233 234
          240 241 242 243 244 300 301 302 303 304
          310 311 312 313 314 320 321 322 323 324
          330 331 332 333 334 340 341 342 343 344
          400 401 402 403 404 410 411 412 413 414
          420 421 422 423 424 430 431 432 433 434
          440 441 442 443 444 500 501 502 503 504
          510 511 512 513 514 520 521 522 523 524
          530 531 532 533 534 540 541 542 543 544
          600 601 602 603 604 610 611 612 613 614
          620 621 622 623 624 630 631 632 633 634
          640 641 642 643 644 700 701 702 703 704
          710 711 712 713 714 720 721 722 723 724
          730 731 732 733 734 740 741 742 743 744
          800 801 802 803 804 810 811 812 813 814
          820 821 822 823 824 830 831 832 833 834
          840 841 842 843 844 900 901 902 903 904
          910 911 912 913 914 920 921 922 923 924
          930 931 932 933 934 940 941 942 943 944

        </DataArray>
        <DataArray type="Int32" Name="Aggregate" format="ascii">
          0 0 1 1 1 0 2 6 1 3
          2 2 2 3 3 4 2 2 5 3
          4 4 5 5 5 0 7 6 1 8
          0 6 6 6 3 9 2 6 10 3
          4 11 6 5 12 4 11 5 5 12
          7 7 7 8 8 9 7 6 10 8
          9 9 10 10 10 9 11 13 10 12
          11 11 11 12 12 14 7 7 15 8
          9 16 13 10 8 9 16 13 10 17
          18 13 13 13 17 18 11 13 19 12
          14 14 15 15 15 14 16 20 15 17
          16 16 16 17 17 18 16 13 19 17
          18 18 19 19 19 14 21 20 15 22
          14 20 20 20 22 23 16 20 24 17
          23 25 20 19 26 18 25 19 19 26
          21 21 21 22 22 23 21 20 24 22
          23 23 24 24 24 23 25 27 24 26
          25 25 25 26 26 28 21 21 29 22
          28 30 27 24 31 23 30 27 24 31
          32 27 27 27 26 32 25 27 33 26
          28 28 29 29 29 28 30 34 29 31
          30 30 30 31 31 32 30 27 33 31
          32 32 33 33 33 28 34 34 29 29
          28 34 34 34 31 30 30 34 34 31
          32 30 27 33 31 32 32 33 33 33

        </DataArray>
        <DataArray type="Int32" Name="Processor" format="ascii">
          0 0 0 0 0 0 0 0 0 0 0 0 0 0 0 0 0 0 0 0
          0 0 0 0 0 0 0 0 0 0 0 0 0 0 0 0 0 0 0 0
          0 0 0 0 0 0 0 0 0 0 0 0 0 0 0 0 0 0 0 0
          0 0 0 0 0 0 0 0 0 0 0 0 0 0 0 0 0 0 0 0
          0 0 0 0 0 0 0 0 0 0 0 0 0 0 0 0 0 0 0 0
          0 0 0 0 0 0 0 0 0 0 0 0 0 0 0 0 0 0 0 0
          0 0 0 0 0 0 0 0 0 0 0 0 0 0 0 0 0 0 0 0
          0 0 0 0 0 0 0 0 0 0 0 0 0 0 0 0 0 0 0 0
          0 0 0 0 0 0 0 0 0 0 0 0 0 0 0 0 0 0 0 0
          0 0 0 0 0 0 0 0 0 0 0 0 0 0 0 0 0 0 0 0
          0 0 0 0 0 0 0 0 0 0 0 0 0 0 0 0 0 0 0 0
          0 0 0 0 0 0 0 0 0 0 0 0 0 0 0 0 0 0 0 0
          0 0 0 0 0 0 0 0 0 0
        </DataArray>
        <DataArray type="Float64" Name="Quality" format="ascii">
          4.71117 4.71117 6 6 6 4.71117 12.2679 26.5197 6 11.0268
          12.2679 12.2679 12.2679 11.0268 11.0268 6.36105 12.2679 12.2679 9.04703 11.0268
          6.36105 6.36105 9.04703 9.04703 9.04703 4.71117 12.2679 26.5197 6 11.0268
          4.71117 26.5197 26.5197 26.5197 11.0268 12.2712 12.2679 26.5197 17.0714 11.0268
          6.36105 16.5078 26.5197 9.04703 15.7082 6.36105 16.5078 9.04703 9.04703 15.7082
          12.2679 12.2679 12.2679 11.0268 11.0268 12.2712 12.2679 26.5197 17.0714 11.0268
          12.2712 12.2712 17.0714 17.0714 17.0714 12.2712 16.5078 26.5197 17.0714 15.7082
          16.5078 16.5078 16.5078 15.7082 15.7082 6.35236 12.2679 12.2679 11.6108 11.0268
          12.2712 17.0714 26.5197 17.0714 11.0268 12.2712 17.0714 26.5197 17.0714 16.5078
          12.3728 26.5197 26.5197 26.5197 16.5078 12.3728 16.5078 26.5197 15.5535 15.7082
          6.35236 6.35236 11.6108 11.6108 11.6108 6.35236 17.0714 26.5197 11.6108 16.5078
          17.0714 17.0714 17.0714 16.5078 16.5078 12.3728 17.0714 26.5197 15.5535 16.5078
          12.3728 12.3728 15.5535 15.5535 15.5535 6.35236 12.2679 26.5197 11.6108 11.0268
          6.35236 26.5197 26.5197 26.5197 11.0268 12.2712 17.0714 26.5197 17.0714 16.5078
          12.2712 16.5078 26.5197 15.5535 14.1879 12.3728 16.5078 15.5535 15.5535 14.1879
          12.2679 12.2679 12.2679 11.0268 11.0268 12.2712 12.2679 26.5197 17.0714 11.0268
          12.2712 12.2712 17.0714 17.0714 17.0714 12.2712 16.5078 31.4164 17.0714 14.1879
          16.5078 16.5078 16.5078 14.1879 14.1879 6.24949 12.2679 12.2679 12.1555 11.0268
          6.24949 21.217 31.4164 17.0714 14.6789 12.2712 21.217 31.4164 17.0714 14.6789
          8.49387 31.4164 31.4164 31.4164 14.1879 8.49387 16.5078 31.4164 13.8718 14.1879
          6.24949 6.24949 12.1555 12.1555 12.1555 6.24949 21.217 12.5778 12.1555 14.6789
          21.217 21.217 21.217 14.6789 14.6789 8.49387 21.217 31.4164 13.8718 14.6789
          8.49387 8.49387 13.8718 13.8718 13.8718 6.24949 12.5778 12.5778 12.1555 12.1555
          6.24949 12.5778 12.5778 12.5778 14.6789 21.217 21.217 12.5778 12.5778 14.6789
          8.49387 21.217 31.4164 13.8718 14.6789 8.49387 8.49387 13.8718 13.8718 13.8718

        </DataArray>
      </PointData>
      <Points>
        <DataArray type="Float64" NumberOfComponents="3" format="ascii">
          0 0 0 0.111111 0 0 0.222222 0 0
          0.333333 0 0 0.444444 0 0 0 0.111111 0
          0.111111 0.111111 0 0.222222 0.111111 0 0.333333 0.111111 0
          0.444444 0.111111 0 0 0.222222 0 0.111111 0.222222 0
          0.222222 0.222222 0 0.333333 0.222222 0 0.444444 0.222222 0
          0 0.333333 0 0.111111 0.333333 0 0.222222 0.333333 0
          0.333333 0.333333 0 0.444444 0.333333 0 0 0.444444 0
          0.111111 0.444444 0 0.222222 0.444444 0 0.333333 0.444444 0
          0.444444 0.444444 0 0 0 0.111111 0.111111 0 0.111111
          0.222222 0 0.111111 0.333333 0 0.111111 0.444444 0 0.111111
          0 0.111111 0.111111 0.111111 0.111111 0.111111 0.222222 0.111111 0.111111
          0.333333 0.111111 0.111111 0.444444 0.111111 0.111111 0 0.222222 0.111111
          0.111111 0.222222 0.111111 0.222222 0.222222 0.111111 0.333333 0.222222 0.111111
          0.444444 0.222222 0.111111 0 0.333333 0.111111 0.111111 0.333333 0.111111
          0.222222 0.333333 0.111111 0.333333 0.333333 0.111111 0.444444 0.333333 0.111111
          0 0.444444 0.111111 0.111111 0.444444 0.111111 0.222222 0.444444 0.111111
          0.333333 0.444444 0.111111 0.444444 0.444444 0.111111 0 0 0.222222
          0.111111 0 0.222222 0.222222 0 0.222222 0.333333 0 0.222222
          0.444444 0 0.222222 0 0.111111 0.222222 0.111111 0.111111 0.222222
          0.222222 0.111111 0.222222 0.333333 0.111111 0.222222 0.444444 0.111111 0.222222
          0 0.222222 0.222222 0.111111 0.222222 0.222222 0.222222 0.222222 0.222222
          0.333333 0.222222 0.222222 0.444444 0.222222 0.222222 0 0.333333 0.222222
          0.111111 0.333333 0.222222 0.222222 0.333333 0.222222 0.333333 0.333333 0.222222
          0.444444 0.333333 0.222222 0 0.444444 0.222222 0.111111 0.444444 0.222222
          0.222222 0.444444 0.222222 0.333333 0.444444 0.222222 0.444444 0.444444 0.222222
          0 0 0.333333 0.111111 0 0.333333 0.222222 0 0.333333
          0.333333 0 0.333333 0.444444 0 0.333333 0 0.111111 0.333333
          0.111111 0.111111 0.333333 0.222222 0.111111 0.333333 0.333333 0.111111 0.333333
          0.444444 0.111111 0.333333 0 0.222222 0.333333 0.111111 0.222222 0.333333
          0.222222 0.222222 0.333333 0.333333 0.222222 0.333333 0.444444 0.222222 0.333333
          0 0.333333 0.333333 0.111111 0.333333 0.333333 0.222222 0.333333 0.333333
          0.333333 0.333333 0.333333 0.444444 0.333333 0.333333 0 0.444444 0.333333
          0.111111 0.444444 0.333333 0.222222 0.444444 0.333333 0.333333 0.444444 0.333333
          0.444444 0.444444 0.333333 0 0 0.444444 0.111111 0 0.444444
          0.222222 0 0.444444 0.333333 0 0.444444 0.444444 0 0.444444
          0 0.111111 0.444444 0.111111 0.111111 0.444444 0.222222 0.111111 0.444444
          0.333333 0.111111 0.444444 0.444444 0.111111 0.444444 0 0.222222 0.444444
          0.111111 0.222222 0.444444 0.222222 0.222222 0.444444 0.333333 0.222222 0.444444
          0.444444 0.222222 0.444444 0 0.333333 0.444444 0.111111 0.333333 0.444444
          0.222222 0.333333 0.444444 0.333333 0.333333 0.444444 0.444444 0.333333 0.444444
          0 0.444444 0.444444 0.111111 0.444444 0.444444 0.222222 0.444444 0.444444
          0.333333 0.444444 0.444444 0.444444 0.444444 0.444444 0 0 0.555556
          0.111111 0 0.555556 0.222222 0 0.555556 0.333333 0 0.555556
          0.444444 0 0.555556 0 0.111111 0.555556 0.111111 0.111111 0.555556
          0.222222 0.111111 0.555556 0.333333 0.111111 0.555556 0.444444 0.111111 0.555556
          0 0.222222 0.555556 0.111111 0.222222 0.555556 0.222222 0.222222 0.555556
          0.333333 0.222222 0.555556 0.444444 0.222222 0.555556 0 0.333333 0.555556
          0.111111 0.333333 0.555556 0.222222 0.333333 0.555556 0.333333 0.333333 0.555556
          0.444444 0.333333 0.555556 0 0.444444 0.555556 0.111111 0.444444 0.555556
          0.222222 0.444444 0.555556 0.333333 0.444444 0.555556 0.444444 0.444444 0.555556
          0 0 0.666667 0.111111 0 0.666667 0.222222 0 0.666667
          0.333333 0 0.666667 0.444444 0 0.666667 0 0.111111 0.666667
          0.111111 0.111111 0.666667 0.222222 0.111111 0.666667 0.333333 0.111111 0.666667
          0.444444 0.111111 0.666667 0 0.222222 0.666667 0.111111 0.222222 0.666667
          0.222222 0.222222 0.666667 0.333333 0.222222 0.666667 0.444444 0.222222 0.666667
          0 0.333333 0.666667 0.111111 0.333333 0.666667 0.222222 0.333333 0.666667
          0.333333 0.333333 0.666667 0.444444 0.333333 0.666667 0 0.444444 0.666667
          0.111111 0.444444 0.666667 0.222222 0.444444 0.666667 0.333333 0.444444 0.666667
          0.444444 0.444444 0.666667 0 0 0.777778 0.111111 0 0.777778
          0.222222 0 0.777778 0.333333 0 0.777778 0.444444 0 0.777778
          0 0.111111 0.777778 0.111111 0.111111 0.777778 0.222222 0.111111 0.777778
          0.333333 0.111111 0.777778 0.444444 0.111111 0.777778 0 0.222222 0.777778
          0.111111 0.222222 0.777778 0.222222 0.222222 0.777778 0.333333 0.222222 0.777778
          0.444444 0.222222 0.777778 0 0.333333 0.777778 0.111111 0.333333 0.777778
          0.222222 0.333333 0.777778 0.333333 0.333333 0.777778 0.444444 0.333333 0.777778
          0 0.444444 0.777778 0.111111 0.444444 0.777778 0.222222 0.444444 0.777778
          0.333333 0.444444 0.777778 0.444444 0.444444 0.777778 0 0 0.888889
          0.111111 0 0.888889 0.222222 0 0.888889 0.333333 0 0.888889
          0.444444 0 0.888889 0 0.111111 0.888889 0.111111 0.111111 0.888889
          0.222222 0.111111 0.888889 0.333333 0.111111 0.888889 0.444444 0.111111 0.888889
          0 0.222222 0.888889 0.111111 0.222222 0.888889 0.222222 0.222222 0.888889
          0.333333 0.222222 0.888889 0.444444 0.222222 0.888889 0 0.333333 0.888889
          0.111111 0.333333 0.888889 0.222222 0.333333 0.888889 0.333333 0.333333 0.888889
          0.444444 0.333333 0.888889 0 0.444444 0.888889 0.111111 0.444444 0.888889
          0.222222 0.444444 0.888889 0.333333 0.444444 0.888889 0.444444 0.444444 0.888889
          0 0 1 0.111111 0 1 0.222222 0 1
          0.333333 0 1 0.444444 0 1 0 0.111111 1
          0.111111 0.111111 1 0.222222 0.111111 1 0.333333 0.111111 1
          0.444444 0.111111 1 0 0.222222 1 0.111111 0.222222 1
          0.222222 0.222222 1 0.333333 0.222222 1 0.444444 0.222222 1
          0 0.333333 1 0.111111 0.333333 1 0.222222 0.333333 1
          0.333333 0.333333 1 0.444444 0.333333 1 0 0.444444 1
          0.111111 0.444444 1 0.222222 0.444444 1 0.333333 0.444444 1
          0.444444 0.444444 1
        </DataArray>
      </Points>
      <Cells>
        <DataArray type="Int32" Name="connectivity" format="ascii">
          0 1 2 3 4 5 6 7 8 9
          10 11 12 13 14 15 16 17 18 19
          20 21 22 23 24 25 26 27 28 29
          30 31 32 33 34 35 36 37 38 39
          40 41 42 43 44 45 46 47 48 49
          50 51 52 53 54 55 56 57 58 59
          60 61 62 63 64 65 66 67 68 69
          70 71 72 73 74 75 76 77 78 79
          80 81 82 83 84 85 86 87 88 89
          90 91 92 93 94 95 96 97 98 99
          100 101 102 103 104 105 106 107 108 109
          110 111 112 113 114 115 116 117 118 119
          120 121 122 123 124 125 126 127 128 129
          130 131 132 133 134 135 136 137 138 139
          140 141 142 143 144 145 146 147 148 149
          150 151 152 153 154 155 156 157 158 159
          160 161 162 163 164 165 166 167 168 169
          170 171 172 173 174 175 176 177 178 179
          180 181 182 183 184 185 186 187 188 189
          190 191 192 193 194 195 196 197 198 199
          200 201 202 203 204 205 206 207 208 209
          210 211 212 213 214 215 216 217 218 219
          220 221 222 223 224 225 226 227 228 229
          230 231 232 233 234 235 236 237 238 239
          240 241 242 243 244 245 246 247 248 249

        </DataArray>
        <DataArray type="Int32" Name="offsets" format="ascii">
          1 2 3 4 5 6 7 8 9 10
          11 12 13 14 15 16 17 18 19 20
          21 22 23 24 25 26 27 28 29 30
          31 32 33 34 35 36 37 38 39 40
          41 42 43 44 45 46 47 48 49 50
          51 52 53 54 55 56 57 58 59 60
          61 62 63 64 65 66 67 68 69 70
          71 72 73 74 75 76 77 78 79 80
          81 82 83 84 85 86 87 88 89 90
          91 92 93 94 95 96 97 98 99 100
          101 102 103 104 105 106 107 108 109 110
          111 112 113 114 115 116 117 118 119 120
          121 122 123 124 125 126 127 128 129 130
          131 132 133 134 135 136 137 138 139 140
          141 142 143 144 145 146 147 148 149 150
          151 152 153 154 155 156 157 158 159 160
          161 162 163 164 165 166 167 168 169 170
          171 172 173 174 175 176 177 178 179 180
          181 182 183 184 185 186 187 188 189 190
          191 192 193 194 195 196 197 198 199 200
          201 202 203 204 205 206 207 208 209 210
          211 212 213 214 215 216 217 218 219 220
          221 222 223 224 225 226 227 228 229 230
          231 232 233 234 235 236 237 238 239 240
          241 242 243 244 245 246 247 248 249 250

        </DataArray>
        <DataArray type="Int32" Name="types" format="ascii">
          1 1 1 1 1 1 1 1 1 1 1 1 1 1 1 1 1 1 1 1 1 1 1 1 1 1 1 1 1 1
          1 1 1 1 1 1 1 1 1 1 1 1 1 1 1 1 1 1 1 1 1 1 1 1 1 1 1 1 1 1
          1 1 1 1 1 1 1 1 1 1 1 1 1 1 1 1 1 1 1 1 1 1 1 1 1 1 1 1 1 1
          1 1 1 1 1 1 1 1 1 1 1 1 1 1 1 1 1 1 1 1 1 1 1 1 1 1 1 1 1 1
          1 1 1 1 1 1 1 1 1 1 1 1 1 1 1 1 1 1 1 1 1 1 1 1 1 1 1 1 1 1
          1 1 1 1 1 1 1 1 1 1 1 1 1 1 1 1 1 1 1 1 1 1 1 1 1 1 1 1 1 1
          1 1 1 1 1 1 1 1 1 1 1 1 1 1 1 1 1 1 1 1 1 1 1 1 1 1 1 1 1 1
          1 1 1 1 1 1 1 1 1 1 1 1 1 1 1 1 1 1 1 1 1 1 1 1 1 1 1 1 1 1
          1 1 1 1 1 1 1 1 1 1
        </DataArray>
      </Cells>
    </Piece>
  </UnstructuredGrid>
</VTKFile>