<!--Point Cloud Aggregates Visualization-->
<VTKFile type="UnstructuredGrid" byte_order="LittleEndian">
  <UnstructuredGrid>
    <Piece NumberOfPoints="250" NumberOfCells="250">
      <PointData Scalars="Node Aggregate Processor">
        <DataArray type="Int32" Name="Node" format="ascii">
          150 151 152 153 154 155 156 157 158 159 
          160 161 162 163 164 180 181 182 183 184 
          185 186 187 188 189 190 191 192 193 194 
          210 211 212 213 214 215 216 217 218 219 
          220 221 222 223 224 240 241 242 243 244 
          245 246 247 248 249 250 251 252 253 254 
          270 271 272 273 274 275 276 277 278 279 
          280 281 282 283 284 450 451 452 453 454 
          455 456 457 458 459 460 461 462 463 464 
          480 481 482 483 484 485 486 487 488 489 
          490 491 492 493 494 510 511 512 513 514 
          515 516 517 518 519 520 521 522 523 524 
          540 541 542 543 544 545 546 547 548 549 
          550 551 552 553 554 570 571 572 573 574 
          575 576 577 578 579 580 581 582 583 584 
          750 751 752 753 754 755 756 757 758 759 
          760 761 762 763 764 780 781 782 783 784 
          785 786 787 788 789 790 791 792 793 794 
          810 811 812 813 814 815 816 817 818 819 
          820 821 822 823 824 840 841 842 843 844 
          845 846 847 848 849 850 851 852 853 854 
          870 871 872 873 874 875 876 877 878 879 
          880 881 882 883 884 1050 1051 1052 1053 1054 
          1055 1056 1057 1058 1059 1060 1061 1062 1063 1064 
          1080 1081 1082 1083 1084 1085 1086 1087 1088 1089 
          
        </DataArray>
        <DataArray type="Int32" Name="Aggregate" format="ascii">
          32 32 33 33 33 32 32 33 33 33 
          34 34 35 35 35 34 34 35 35 35 
          34 34 35 35 35 32 32 33 33 33 
          32 32 33 33 33 34 34 35 35 35 
          34 34 35 35 35 34 34 35 35 35 
          36 36 37 37 37 36 36 37 37 37 
          38 38 39 39 39 38 38 39 39 39 
          38 38 39 39 39 36 36 37 37 37 
          36 36 37 37 37 38 38 39 39 39 
          38 38 39 39 39 38 38 39 39 39 
          36 36 37 37 37 36 36 37 37 37 
          38 38 39 39 39 38 38 39 39 39 
          38 38 39 39 39 40 40 41 41 41 
          40 40 41 41 41 42 42 43 43 43 
          42 42 43 43 43 42 42 43 43 43 
          40 40 41 41 41 40 40 41 41 41 
          42 42 43 43 43 42 42 43 43 43 
          42 42 43 43 43 40 40 41 41 41 
          40 40 41 41 41 42 42 43 43 43 
          42 42 43 43 43 42 42 43 43 43 
          44 44 45 45 45 44 44 45 45 45 
          46 46 47 47 47 46 46 47 47 47 
          46 46 47 47 47 44 44 45 45 45 
          44 44 45 45 45 46 46 47 47 47 
          46 46 47 47 47 46 46 47 47 47 
          
        </DataArray>
        <DataArray type="Int32" Name="Processor" format="ascii">
          2 2 2 2 2 2 2 2 2 2 2 2 2 2 2 2 2 2 2 2 
          2 2 2 2 2 2 2 2 2 2 2 2 2 2 2 2 2 2 2 2 
          2 2 2 2 2 2 2 2 2 2 2 2 2 2 2 2 2 2 2 2 
          2 2 2 2 2 2 2 2 2 2 2 2 2 2 2 2 2 2 2 2 
          2 2 2 2 2 2 2 2 2 2 2 2 2 2 2 2 2 2 2 2 
          2 2 2 2 2 2 2 2 2 2 2 2 2 2 2 2 2 2 2 2 
          2 2 2 2 2 2 2 2 2 2 2 2 2 2 2 2 2 2 2 2 
          2 2 2 2 2 2 2 2 2 2 2 2 2 2 2 2 2 2 2 2 
          2 2 2 2 2 2 2 2 2 2 2 2 2 2 2 2 2 2 2 2 
          2 2 2 2 2 2 2 2 2 2 2 2 2 2 2 2 2 2 2 2 
          2 2 2 2 2 2 2 2 2 2 2 2 2 2 2 2 2 2 2 2 
          2 2 2 2 2 2 2 2 2 2 2 2 2 2 2 2 2 2 2 2 
          2 2 2 2 2 2 2 2 2 2 
        </DataArray>
      </PointData>
      <Points>
        <DataArray type="Float64" NumberOfComponents="3" format="ascii">
          0 0.555556 0 0.111111 0.555556 0 0.222222 0.555556 0 
          0.333333 0.555556 0 0.444444 0.555556 0 0 0.666667 0 
          0.111111 0.666667 0 0.222222 0.666667 0 0.333333 0.666667 0 
          0.444444 0.666667 0 0 0.777778 0 0.111111 0.777778 0 
          0.222222 0.777778 0 0.333333 0.777778 0 0.444444 0.777778 0 
          0 0.888889 0 0.111111 0.888889 0 0.222222 0.888889 0 
          0.333333 0.888889 0 0.444444 0.888889 0 0 1 0 
          0.111111 1 0 0.222222 1 0 0.333333 1 0 
          0.444444 1 0 0 0.555556 0.111111 0.111111 0.555556 0.111111 
          0.222222 0.555556 0.111111 0.333333 0.555556 0.111111 0.444444 0.555556 0.111111 
          0 0.666667 0.111111 0.111111 0.666667 0.111111 0.222222 0.666667 0.111111 
          0.333333 0.666667 0.111111 0.444444 0.666667 0.111111 0 0.777778 0.111111 
          0.111111 0.777778 0.111111 0.222222 0.777778 0.111111 0.333333 0.777778 0.111111 
          0.444444 0.777778 0.111111 0 0.888889 0.111111 0.111111 0.888889 0.111111 
          0.222222 0.888889 0.111111 0.333333 0.888889 0.111111 0.444444 0.888889 0.111111 
          0 1 0.111111 0.111111 1 0.111111 0.222222 1 0.111111 
          0.333333 1 0.111111 0.444444 1 0.111111 0 0.555556 0.222222 
          0.111111 0.555556 0.222222 0.222222 0.555556 0.222222 0.333333 0.555556 0.222222 
          0.444444 0.555556 0.222222 0 0.666667 0.222222 0.111111 0.666667 0.222222 
          0.222222 0.666667 0.222222 0.333333 0.666667 0.222222 0.444444 0.666667 0.222222 
          0 0.777778 0.222222 0.111111 0.777778 0.222222 0.222222 0.777778 0.222222 
          0.333333 0.777778 0.222222 0.444444 0.777778 0.222222 0 0.888889 0.222222 
          0.111111 0.888889 0.222222 0.222222 0.888889 0.222222 0.333333 0.888889 0.222222 
          0.444444 0.888889 0.222222 0 1 0.222222 0.111111 1 0.222222 
          0.222222 1 0.222222 0.333333 1 0.222222 0.444444 1 0.222222 
          0 0.555556 0.333333 0.111111 0.555556 0.333333 0.222222 0.555556 0.333333 
          0.333333 0.555556 0.333333 0.444444 0.555556 0.333333 0 0.666667 0.333333 
          0.111111 0.666667 0.333333 0.222222 0.666667 0.333333 0.333333 0.666667 0.333333 
          0.444444 0.666667 0.333333 0 0.777778 0.333333 0.111111 0.777778 0.333333 
          0.222222 0.777778 0.333333 0.333333 0.777778 0.333333 0.444444 0.777778 0.333333 
          0 0.888889 0.333333 0.111111 0.888889 0.333333 0.222222 0.888889 0.333333 
          0.333333 0.888889 0.333333 0.444444 0.888889 0.333333 0 1 0.333333 
          0.111111 1 0.333333 0.222222 1 0.333333 0.333333 1 0.333333 
          0.444444 1 0.333333 0 0.555556 0.444444 0.111111 0.555556 0.444444 
          0.222222 0.555556 0.444444 0.333333 0.555556 0.444444 0.444444 0.555556 0.444444 
          0 0.666667 0.444444 0.111111 0.666667 0.444444 0.222222 0.666667 0.444444 
          0.333333 0.666667 0.444444 0.444444 0.666667 0.444444 0 0.777778 0.444444 
          0.111111 0.777778 0.444444 0.222222 0.777778 0.444444 0.333333 0.777778 0.444444 
          0.444444 0.777778 0.444444 0 0.888889 0.444444 0.111111 0.888889 0.444444 
          0.222222 0.888889 0.444444 0.333333 0.888889 0.444444 0.444444 0.888889 0.444444 
          0 1 0.444444 0.111111 1 0.444444 0.222222 1 0.444444 
          0.333333 1 0.444444 0.444444 1 0.444444 0 0.555556 0.555556 
          0.111111 0.555556 0.555556 0.222222 0.555556 0.555556 0.333333 0.555556 0.555556 
          0.444444 0.555556 0.555556 0 0.666667 0.555556 0.111111 0.666667 0.555556 
          0.222222 0.666667 0.555556 0.333333 0.666667 0.555556 0.444444 0.666667 0.555556 
          0 0.777778 0.555556 0.111111 0.777778 0.555556 0.222222 0.777778 0.555556 
          0.333333 0.777778 0.555556 0.444444 0.777778 0.555556 0 0.888889 0.555556 
          0.111111 0.888889 0.555556 0.222222 0.888889 0.555556 0.333333 0.888889 0.555556 
          0.444444 0.888889 0.555556 0 1 0.555556 0.111111 1 0.555556 
          0.222222 1 0.555556 0.333333 1 0.555556 0.444444 1 0.555556 
          0 0.555556 0.666667 0.111111 0.555556 0.666667 0.222222 0.555556 0.666667 
          0.333333 0.555556 0.666667 0.444444 0.555556 0.666667 0 0.666667 0.666667 
          0.111111 0.666667 0.666667 0.222222 0.666667 0.666667 0.333333 0.666667 0.666667 
          0.444444 0.666667 0.666667 0 0.777778 0.666667 0.111111 0.777778 0.666667 
          0.222222 0.777778 0.666667 0.333333 0.777778 0.666667 0.444444 0.777778 0.666667 
          0 0.888889 0.666667 0.111111 0.888889 0.666667 0.222222 0.888889 0.666667 
          0.333333 0.888889 0.666667 0.444444 0.888889 0.666667 0 1 0.666667 
          0.111111 1 0.666667 0.222222 1 0.666667 0.333333 1 0.666667 
          0.444444 1 0.666667 0 0.555556 0.777778 0.111111 0.555556 0.777778 
          0.222222 0.555556 0.777778 0.333333 0.555556 0.777778 0.444444 0.555556 0.777778 
          0 0.666667 0.777778 0.111111 0.666667 0.777778 0.222222 0.666667 0.777778 
          0.333333 0.666667 0.777778 0.444444 0.666667 0.777778 0 0.777778 0.777778 
          0.111111 0.777778 0.777778 0.222222 0.777778 0.777778 0.333333 0.777778 0.777778 
          0.444444 0.777778 0.777778 0 0.888889 0.777778 0.111111 0.888889 0.777778 
          0.222222 0.888889 0.777778 0.333333 0.888889 0.777778 0.444444 0.888889 0.777778 
          0 1 0.777778 0.111111 1 0.777778 0.222222 1 0.777778 
          0.333333 1 0.777778 0.444444 1 0.777778 0 0.555556 0.888889 
          0.111111 0.555556 0.888889 0.222222 0.555556 0.888889 0.333333 0.555556 0.888889 
          0.444444 0.555556 0.888889 0 0.666667 0.888889 0.111111 0.666667 0.888889 
          0.222222 0.666667 0.888889 0.333333 0.666667 0.888889 0.444444 0.666667 0.888889 
          0 0.777778 0.888889 0.111111 0.777778 0.888889 0.222222 0.777778 0.888889 
          0.333333 0.777778 0.888889 0.444444 0.777778 0.888889 0 0.888889 0.888889 
          0.111111 0.888889 0.888889 0.222222 0.888889 0.888889 0.333333 0.888889 0.888889 
          0.444444 0.888889 0.888889 0 1 0.888889 0.111111 1 0.888889 
          0.222222 1 0.888889 0.333333 1 0.888889 0.444444 1 0.888889 
          0 0.555556 1 0.111111 0.555556 1 0.222222 0.555556 1 
          0.333333 0.555556 1 0.444444 0.555556 1 0 0.666667 1 
          0.111111 0.666667 1 0.222222 0.666667 1 0.333333 0.666667 1 
          0.444444 0.666667 1 0 0.777778 1 0.111111 0.777778 1 
          0.222222 0.777778 1 0.333333 0.777778 1 0.444444 0.777778 1 
          0 0.888889 1 0.111111 0.888889 1 0.222222 0.888889 1 
          0.333333 0.888889 1 0.444444 0.888889 1 0 1 1 
          0.111111 1 1 0.222222 1 1 0.333333 1 1 
          0.444444 1 1 
        </DataArray>
      </Points>
      <Cells>
        <DataArray type="Int32" Name="connectivity" format="ascii">
          0 1 2 3 4 5 6 7 8 9 
          10 11 12 13 14 15 16 17 18 19 
          20 21 22 23 24 25 26 27 28 29 
          30 31 32 33 34 35 36 37 38 39 
          40 41 42 43 44 45 46 47 48 49 
          50 51 52 53 54 55 56 57 58 59 
          60 61 62 63 64 65 66 67 68 69 
          70 71 72 73 74 75 76 77 78 79 
          80 81 82 83 84 85 86 87 88 89 
          90 91 92 93 94 95 96 97 98 99 
          100 101 102 103 104 105 106 107 108 109 
          110 111 112 113 114 115 116 117 118 119 
          120 121 122 123 124 125 126 127 128 129 
          130 131 132 133 134 135 136 137 138 139 
          140 141 142 143 144 145 146 147 148 149 
          150 151 152 153 154 155 156 157 158 159 
          160 161 162 163 164 165 166 167 168 169 
          170 171 172 173 174 175 176 177 178 179 
          180 181 182 183 184 185 186 187 188 189 
          190 191 192 193 194 195 196 197 198 199 
          200 201 202 203 204 205 206 207 208 209 
          210 211 212 213 214 215 216 217 218 219 
          220 221 222 223 224 225 226 227 228 229 
          230 231 232 233 234 235 236 237 238 239 
          240 241 242 243 244 245 246 247 248 249 
          
        </DataArray>
        <DataArray type="Int32" Name="offsets" format="ascii">
          1 2 3 4 5 6 7 8 9 10 
          11 12 13 14 15 16 17 18 19 20 
          21 22 23 24 25 26 27 28 29 30 
          31 32 33 34 35 36 37 38 39 40 
          41 42 43 44 45 46 47 48 49 50 
          51 52 53 54 55 56 57 58 59 60 
          61 62 63 64 65 66 67 68 69 70 
          71 72 73 74 75 76 77 78 79 80 
          81 82 83 84 85 86 87 88 89 90 
          91 92 93 94 95 96 97 98 99 100 
          101 102 103 104 105 106 107 108 109 110 
          111 112 113 114 115 116 117 118 119 120 
          121 122 123 124 125 126 127 128 129 130 
          131 132 133 134 135 136 137 138 139 140 
          141 142 143 144 145 146 147 148 149 150 
          151 152 153 154 155 156 157 158 159 160 
          161 162 163 164 165 166 167 168 169 170 
          171 172 173 174 175 176 177 178 179 180 
          181 182 183 184 185 186 187 188 189 190 
          191 192 193 194 195 196 197 198 199 200 
          201 202 203 204 205 206 207 208 209 210 
          211 212 213 214 215 216 217 218 219 220 
          221 222 223 224 225 226 227 228 229 230 
          231 232 233 234 235 236 237 238 239 240 
          241 242 243 244 245 246 247 248 249 250 
          
        </DataArray>
        <DataArray type="Int32" Name="types" format="ascii">
          1 1 1 1 1 1 1 1 1 1 1 1 1 1 1 1 1 1 1 1 1 1 1 1 1 1 1 1 1 1 
          1 1 1 1 1 1 1 1 1 1 1 1 1 1 1 1 1 1 1 1 1 1 1 1 1 1 1 1 1 1 
          1 1 1 1 1 1 1 1 1 1 1 1 1 1 1 1 1 1 1 1 1 1 1 1 1 1 1 1 1 1 
          1 1 1 1 1 1 1 1 1 1 1 1 1 1 1 1 1 1 1 1 1 1 1 1 1 1 1 1 1 1 
          1 1 1 1 1 1 1 1 1 1 1 1 1 1 1 1 1 1 1 1 1 1 1 1 1 1 1 1 1 1 
          1 1 1 1 1 1 1 1 1 1 1 1 1 1 1 1 1 1 1 1 1 1 1 1 1 1 1 1 1 1 
          1 1 1 1 1 1 1 1 1 1 1 1 1 1 1 1 1 1 1 1 1 1 1 1 1 1 1 1 1 1 
          1 1 1 1 1 1 1 1 1 1 1 1 1 1 1 1 1 1 1 1 1 1 1 1 1 1 1 1 1 1 
          1 1 1 1 1 1 1 1 1 1 
        </DataArray>
      </Cells>
    </Piece>
  </UnstructuredGrid>
</VTKFile>
