<!--Convex Hulls Aggregates Visualization-->
<VTKFile type="UnstructuredGrid" byte_order="LittleEndian">
  <UnstructuredGrid>
    <Piece NumberOfPoints="207" NumberOfCells="274">
      <PointData Scalars="Node Aggregate Processor">
        <DataArray type="Int32" Name="Node" format="ascii">
          0 1 2 4 10 11 12 13 14 20 
          22 23 30 31 32 33 34 40 41 42 
          44 100 101 102 103 104 110 111 113 114 
          120 121 123 124 130 131 132 133 134 140 
          141 142 143 144 200 202 203 210 211 212 
          213 214 221 222 224 230 231 232 233 234 
          240 242 243 300 301 302 303 304 310 311 
          312 313 314 320 321 323 324 330 331 333 
          334 340 341 342 343 344 401 402 404 410 
          411 412 413 414 420 422 423 430 431 432 
          433 434 441 442 444 500 501 502 503 504 
          510 511 513 514 520 521 523 524 530 531 
          532 533 534 540 541 542 543 544 600 602 
          603 610 611 612 613 614 621 622 624 630 
          631 632 633 640 642 643 700 701 702 703 
          704 710 711 712 713 714 720 721 723 724 
          730 731 733 734 740 741 742 743 744 801 
          802 804 811 812 813 820 822 823 831 833 
          834 841 842 844 900 901 902 903 904 910 
          911 913 914 920 921 922 923 930 931 932 
          933 934 940 941 942 943 944 
        </DataArray>
        <DataArray type="Int32" Name="Aggregate" format="ascii">
          0 0 1 1 0 2 6 1 3 2 
          2 3 4 2 2 5 3 4 4 5 
          5 0 7 6 1 8 0 6 6 3 
          9 2 10 3 4 11 6 5 12 4 
          11 5 5 12 7 7 8 9 7 6 
          10 8 9 10 10 9 11 13 10 12 
          11 11 12 14 7 7 15 8 9 16 
          13 10 8 9 16 10 17 18 13 13 
          17 18 11 13 19 12 14 15 15 14 
          16 20 15 17 16 16 17 18 16 13 
          19 17 18 19 19 14 21 20 15 22 
          14 20 20 22 23 16 24 17 23 25 
          20 19 26 18 25 19 19 26 21 21 
          22 23 21 20 24 22 23 24 24 23 
          25 27 24 25 25 26 28 21 21 29 
          22 28 30 27 24 31 23 30 24 31 
          32 27 27 26 32 25 27 33 26 28 
          29 29 30 34 29 30 30 31 30 33 
          31 32 33 33 28 34 34 29 29 28 
          34 34 31 30 30 34 34 32 30 27 
          33 31 32 32 33 33 33 
        </DataArray>
        <DataArray type="Int32" Name="Processor" format="ascii">
          0 0 0 0 0 0 0 0 0 0 0 0 0 0 0 0 0 0 0 0 
          0 0 0 0 0 0 0 0 0 0 0 0 0 0 0 0 0 0 0 0 
          0 0 0 0 0 0 0 0 0 0 0 0 0 0 0 0 0 0 0 0 
          0 0 0 0 0 0 0 0 0 0 0 0 0 0 0 0 0 0 0 0 
          0 0 0 0 0 0 0 0 0 0 0 0 0 0 0 0 0 0 0 0 
          0 0 0 0 0 0 0 0 0 0 0 0 0 0 0 0 0 0 0 0 
          0 0 0 0 0 0 0 0 0 0 0 0 0 0 0 0 0 0 0 0 
          0 0 0 0 0 0 0 0 0 0 0 0 0 0 0 0 0 0 0 0 
          0 0 0 0 0 0 0 0 0 0 0 0 0 0 0 0 0 0 0 0 
          0 0 0 0 0 0 0 0 0 0 0 0 0 0 0 0 0 0 0 0 
          0 0 0 0 0 0 0 
        </DataArray>
      </PointData>
      <Points>
        <DataArray type="Float64" NumberOfComponents="3" format="ascii">
          0 0 0 0.111111 0 0 0.222222 0 0 
          0.444444 0 0 0 0.111111 0 0.111111 0.111111 0 
          0.222222 0.111111 0 0.333333 0.111111 0 0.444444 0.111111 0 
          0 0.222222 0 0.222222 0.222222 0 0.333333 0.222222 0 
          0 0.333333 0 0.111111 0.333333 0 0.222222 0.333333 0 
          0.333333 0.333333 0 0.444444 0.333333 0 0 0.444444 0 
          0.111111 0.444444 0 0.222222 0.444444 0 0.444444 0.444444 0 
          0 0 0.111111 0.111111 0 0.111111 0.222222 0 0.111111 
          0.333333 0 0.111111 0.444444 0 0.111111 0 0.111111 0.111111 
          0.111111 0.111111 0.111111 0.333333 0.111111 0.111111 0.444444 0.111111 0.111111 
          0 0.222222 0.111111 0.111111 0.222222 0.111111 0.333333 0.222222 0.111111 
          0.444444 0.222222 0.111111 0 0.333333 0.111111 0.111111 0.333333 0.111111 
          0.222222 0.333333 0.111111 0.333333 0.333333 0.111111 0.444444 0.333333 0.111111 
          0 0.444444 0.111111 0.111111 0.444444 0.111111 0.222222 0.444444 0.111111 
          0.333333 0.444444 0.111111 0.444444 0.444444 0.111111 0 0 0.222222 
          0.222222 0 0.222222 0.333333 0 0.222222 0 0.111111 0.222222 
          0.111111 0.111111 0.222222 0.222222 0.111111 0.222222 0.333333 0.111111 0.222222 
          0.444444 0.111111 0.222222 0.111111 0.222222 0.222222 0.222222 0.222222 0.222222 
          0.444444 0.222222 0.222222 0 0.333333 0.222222 0.111111 0.333333 0.222222 
          0.222222 0.333333 0.222222 0.333333 0.333333 0.222222 0.444444 0.333333 0.222222 
          0 0.444444 0.222222 0.222222 0.444444 0.222222 0.333333 0.444444 0.222222 
          0 0 0.333333 0.111111 0 0.333333 0.222222 0 0.333333 
          0.333333 0 0.333333 0.444444 0 0.333333 0 0.111111 0.333333 
          0.111111 0.111111 0.333333 0.222222 0.111111 0.333333 0.333333 0.111111 0.333333 
          0.444444 0.111111 0.333333 0 0.222222 0.333333 0.111111 0.222222 0.333333 
          0.333333 0.222222 0.333333 0.444444 0.222222 0.333333 0 0.333333 0.333333 
          0.111111 0.333333 0.333333 0.333333 0.333333 0.333333 0.444444 0.333333 0.333333 
          0 0.444444 0.333333 0.111111 0.444444 0.333333 0.222222 0.444444 0.333333 
          0.333333 0.444444 0.333333 0.444444 0.444444 0.333333 0.111111 0 0.444444 
          0.222222 0 0.444444 0.444444 0 0.444444 0 0.111111 0.444444 
          0.111111 0.111111 0.444444 0.222222 0.111111 0.444444 0.333333 0.111111 0.444444 
          0.444444 0.111111 0.444444 0 0.222222 0.444444 0.222222 0.222222 0.444444 
          0.333333 0.222222 0.444444 0 0.333333 0.444444 0.111111 0.333333 0.444444 
          0.222222 0.333333 0.444444 0.333333 0.333333 0.444444 0.444444 0.333333 0.444444 
          0.111111 0.444444 0.444444 0.222222 0.444444 0.444444 0.444444 0.444444 0.444444 
          0 0 0.555556 0.111111 0 0.555556 0.222222 0 0.555556 
          0.333333 0 0.555556 0.444444 0 0.555556 0 0.111111 0.555556 
          0.111111 0.111111 0.555556 0.333333 0.111111 0.555556 0.444444 0.111111 0.555556 
          0 0.222222 0.555556 0.111111 0.222222 0.555556 0.333333 0.222222 0.555556 
          0.444444 0.222222 0.555556 0 0.333333 0.555556 0.111111 0.333333 0.555556 
          0.222222 0.333333 0.555556 0.333333 0.333333 0.555556 0.444444 0.333333 0.555556 
          0 0.444444 0.555556 0.111111 0.444444 0.555556 0.222222 0.444444 0.555556 
          0.333333 0.444444 0.555556 0.444444 0.444444 0.555556 0 0 0.666667 
          0.222222 0 0.666667 0.333333 0 0.666667 0 0.111111 0.666667 
          0.111111 0.111111 0.666667 0.222222 0.111111 0.666667 0.333333 0.111111 0.666667 
          0.444444 0.111111 0.666667 0.111111 0.222222 0.666667 0.222222 0.222222 0.666667 
          0.444444 0.222222 0.666667 0 0.333333 0.666667 0.111111 0.333333 0.666667 
          0.222222 0.333333 0.666667 0.333333 0.333333 0.666667 0 0.444444 0.666667 
          0.222222 0.444444 0.666667 0.333333 0.444444 0.666667 0 0 0.777778 
          0.111111 0 0.777778 0.222222 0 0.777778 0.333333 0 0.777778 
          0.444444 0 0.777778 0 0.111111 0.777778 0.111111 0.111111 0.777778 
          0.222222 0.111111 0.777778 0.333333 0.111111 0.777778 0.444444 0.111111 0.777778 
          0 0.222222 0.777778 0.111111 0.222222 0.777778 0.333333 0.222222 0.777778 
          0.444444 0.222222 0.777778 0 0.333333 0.777778 0.111111 0.333333 0.777778 
          0.333333 0.333333 0.777778 0.444444 0.333333 0.777778 0 0.444444 0.777778 
          0.111111 0.444444 0.777778 0.222222 0.444444 0.777778 0.333333 0.444444 0.777778 
          0.444444 0.444444 0.777778 0.111111 0 0.888889 0.222222 0 0.888889 
          0.444444 0 0.888889 0.111111 0.111111 0.888889 0.222222 0.111111 0.888889 
          0.333333 0.111111 0.888889 0 0.222222 0.888889 0.222222 0.222222 0.888889 
          0.333333 0.222222 0.888889 0.111111 0.333333 0.888889 0.333333 0.333333 0.888889 
          0.444444 0.333333 0.888889 0.111111 0.444444 0.888889 0.222222 0.444444 0.888889 
          0.444444 0.444444 0.888889 0 0 1 0.111111 0 1 
          0.222222 0 1 0.333333 0 1 0.444444 0 1 
          0 0.111111 1 0.111111 0.111111 1 0.333333 0.111111 1 
          0.444444 0.111111 1 0 0.222222 1 0.111111 0.222222 1 
          0.222222 0.222222 1 0.333333 0.222222 1 0 0.333333 1 
          0.111111 0.333333 1 0.222222 0.333333 1 0.333333 0.333333 1 
          0.444444 0.333333 1 0 0.444444 1 0.111111 0.444444 1 
          0.222222 0.444444 1 0.333333 0.444444 1 0.444444 0.444444 1 
          
        </DataArray>
      </Points>
      <Cells>
        <DataArray type="Int32" Name="connectivity" format="ascii">
          26 4 0 4 1 0 26 1 4 0 
          1 21 26 0 21 1 26 21 3 2 
          7 24 3 7 2 24 7 2 3 24 
          9 14 5 31 9 5 5 14 10 31 
          5 10 14 31 10 14 9 13 9 31 
          13 31 14 13 16 8 11 8 29 11 
          8 16 29 16 11 33 11 29 33 29 
          16 33 18 17 39 17 12 39 18 12 
          17 12 18 34 39 12 34 18 39 34 
          15 20 37 19 15 37 19 20 15 20 
          19 42 37 20 42 19 37 41 42 19 
          41 37 42 41 27 36 6 23 27 6 
          23 6 28 6 36 28 27 23 49 23 
          28 49 36 27 49 28 36 49 65 44 
          22 44 48 22 22 48 45 65 22 45 
          48 65 45 48 44 64 44 65 64 65 
          48 64 25 67 46 67 72 46 25 72 
          67 25 46 51 72 25 51 46 72 51 
          68 55 30 55 52 30 30 52 47 68 
          30 47 52 68 47 52 55 73 68 52 
          73 55 68 73 53 58 32 32 58 54 
          53 32 50 32 54 50 71 53 50 54 
          71 50 58 53 75 53 71 75 54 58 
          75 71 54 75 82 40 60 40 35 60 
          60 35 56 82 60 56 35 40 61 56 
          35 61 40 82 61 82 56 61 43 38 
          62 85 43 62 85 38 43 62 38 59 
          38 85 59 85 62 59 78 83 57 70 
          78 57 70 57 79 57 83 79 78 70 
          99 70 79 99 83 78 99 79 83 99 
          110 105 86 105 63 86 110 63 105 86 
          63 89 63 110 89 110 86 89 88 87 
          66 92 88 66 87 92 66 87 88 108 
          92 87 108 88 92 108 98 94 115 98 
          115 95 94 69 90 69 95 90 115 94 
          90 95 115 90 69 94 74 95 69 74 
          94 98 74 98 95 74 101 93 76 93 
          96 76 76 96 80 101 76 80 96 101 
          80 96 93 117 93 101 117 101 96 117 
          81 123 102 77 81 102 77 123 81 77 
          102 97 123 77 97 102 123 97 104 84 
          125 125 84 103 121 125 103 103 84 100 
          84 104 100 121 103 100 104 121 100 121 
          104 126 104 125 126 125 121 126 111 120 
          91 107 111 91 107 91 112 91 120 112 
          111 107 133 107 112 133 120 111 133 112 
          120 133 148 128 106 128 132 106 106 132 
          129 148 106 129 132 148 129 132 128 147 
          128 148 147 148 132 147 150 109 113 109 
          130 113 109 150 130 113 130 135 150 113 
          135 130 150 135 131 139 114 136 131 114 
          136 114 118 114 139 118 139 136 118 131 
          136 156 139 131 156 136 139 156 137 142 
          116 116 142 138 137 116 134 116 138 134 
          154 137 134 138 154 134 142 137 158 137 
          154 158 138 142 158 154 138 158 165 124 
          143 124 119 143 143 119 140 165 143 140 
          119 124 144 140 119 144 124 165 144 165 
          140 144 127 122 145 168 127 145 168 122 
          127 145 122 163 122 168 163 168 145 163 
          166 161 199 161 153 199 199 153 162 166 
          199 162 153 161 141 162 153 141 161 166 
          141 166 162 141 151 189 169 146 151 169 
          146 189 151 146 169 184 189 146 184 169 
          189 184 188 170 149 170 174 149 149 174 
          171 188 149 171 174 188 171 174 170 187 
          170 188 187 188 174 187 198 193 194 193 
          152 172 194 193 172 152 157 176 172 152 
          176 194 172 176 198 194 176 176 157 178 
          198 176 178 193 198 178 157 152 175 152 
          193 175 178 157 175 193 178 175 155 201 
          192 177 155 192 201 177 192 201 155 180 
          177 201 180 155 177 159 180 155 159 177 
          180 159 160 203 197 164 160 197 164 197 
          202 203 164 202 197 203 202 160 164 181 
          203 160 181 164 203 181 182 206 167 179 
          182 167 179 167 183 167 206 183 206 179 
          183 206 182 205 182 179 204 205 182 204 
          204 179 200 179 206 200 205 204 200 206 
          205 200 186 185 173 196 185 186 196 173 
          195 185 196 195 173 185 190 195 173 190 
          185 195 190 186 173 191 173 196 191 196 
          186 191 
        </DataArray>
        <DataArray type="Int32" Name="offsets" format="ascii">
          3 6 9 12 15 18 21 24 27 30 
          33 36 39 42 45 48 51 54 57 60 
          63 66 69 72 75 78 81 84 87 90 
          93 96 99 102 105 108 111 114 117 120 
          123 126 129 132 135 138 141 144 147 150 
          153 156 159 162 165 168 171 174 177 180 
          183 186 189 192 195 198 201 204 207 210 
          213 216 219 222 225 228 231 234 237 240 
          243 246 249 252 255 258 261 264 267 270 
          273 276 279 282 285 288 291 294 297 300 
          303 306 309 312 315 318 321 324 327 330 
          333 336 339 342 345 348 351 354 357 360 
          363 366 369 372 375 378 381 384 387 390 
          393 396 399 402 405 408 411 414 417 420 
          423 426 429 432 435 438 441 444 447 450 
          453 456 459 462 465 468 471 474 477 480 
          483 486 489 492 495 498 501 504 507 510 
          513 516 519 522 525 528 531 534 537 540 
          543 546 549 552 555 558 561 564 567 570 
          573 576 579 582 585 588 591 594 597 600 
          603 606 609 612 615 618 621 624 627 630 
          633 636 639 642 645 648 651 654 657 660 
          663 666 669 672 675 678 681 684 687 690 
          693 696 699 702 705 708 711 714 717 720 
          723 726 729 732 735 738 741 744 747 750 
          753 756 759 762 765 768 771 774 777 780 
          783 786 789 792 795 798 801 804 807 810 
          813 816 819 822 
        </DataArray>
        <DataArray type="Int32" Name="types" format="ascii">
          5 5 5 5 5 5 5 5 5 5 5 5 5 5 5 5 5 5 5 5 5 5 5 5 5 5 5 5 5 5 
          5 5 5 5 5 5 5 5 5 5 5 5 5 5 5 5 5 5 5 5 5 5 5 5 5 5 5 5 5 5 
          5 5 5 5 5 5 5 5 5 5 5 5 5 5 5 5 5 5 5 5 5 5 5 5 5 5 5 5 5 5 
          5 5 5 5 5 5 5 5 5 5 5 5 5 5 5 5 5 5 5 5 5 5 5 5 5 5 5 5 5 5 
          5 5 5 5 5 5 5 5 5 5 5 5 5 5 5 5 5 5 5 5 5 5 5 5 5 5 5 5 5 5 
          5 5 5 5 5 5 5 5 5 5 5 5 5 5 5 5 5 5 5 5 5 5 5 5 5 5 5 5 5 5 
          5 5 5 5 5 5 5 5 5 5 5 5 5 5 5 5 5 5 5 5 5 5 5 5 5 5 5 5 5 5 
          5 5 5 5 5 5 5 5 5 5 5 5 5 5 5 5 5 5 5 5 5 5 5 5 5 5 5 5 5 5 
          5 5 5 5 5 5 5 5 5 5 5 5 5 5 5 5 5 5 5 5 5 5 5 5 5 5 5 5 5 5 
          5 5 5 5 
        </DataArray>
      </Cells>
    </Piece>
  </UnstructuredGrid>
</VTKFile>
