<!--Point Cloud Aggregates Visualization-->
<VTKFile type="UnstructuredGrid" byte_order="LittleEndian">
  <UnstructuredGrid>
    <Piece NumberOfPoints="250" NumberOfCells="250">
      <PointData Scalars="Node Aggregate Processor">
        <DataArray type="Int32" Name="Node" format="ascii">
          50 51 52 53 54 60 61 62 63 64 
          70 71 72 73 74 80 81 82 83 84 
          90 91 92 93 94 150 151 152 153 154 
          160 161 162 163 164 170 171 172 173 174 
          180 181 182 183 184 190 191 192 193 194 
          250 251 252 253 254 260 261 262 263 264 
          270 271 272 273 274 280 281 282 283 284 
          290 291 292 293 294 350 351 352 353 354 
          360 361 362 363 364 370 371 372 373 374 
          380 381 382 383 384 390 391 392 393 394 
          450 451 452 453 454 460 461 462 463 464 
          470 471 472 473 474 480 481 482 483 484 
          490 491 492 493 494 550 551 552 553 554 
          560 561 562 563 564 570 571 572 573 574 
          580 581 582 583 584 590 591 592 593 594 
          650 651 652 653 654 660 661 662 663 664 
          670 671 672 673 674 680 681 682 683 684 
          690 691 692 693 694 750 751 752 753 754 
          760 761 762 763 764 770 771 772 773 774 
          780 781 782 783 784 790 791 792 793 794 
          850 851 852 853 854 860 861 862 863 864 
          870 871 872 873 874 880 881 882 883 884 
          890 891 892 893 894 950 951 952 953 954 
          960 961 962 963 964 970 971 972 973 974 
          980 981 982 983 984 990 991 992 993 994 
          
        </DataArray>
        <DataArray type="Int32" Name="Aggregate" format="ascii">
          70 70 71 71 71 70 72 76 71 73 
          72 72 72 73 73 74 72 72 75 73 
          74 74 75 75 75 70 77 76 71 78 
          70 76 76 76 73 79 72 76 80 73 
          74 81 76 75 82 74 81 75 75 82 
          77 77 77 78 78 79 77 76 80 78 
          79 79 80 80 80 79 81 83 80 82 
          81 81 81 82 82 84 77 77 85 78 
          79 86 83 80 78 79 86 83 80 87 
          88 83 83 83 87 88 81 83 89 82 
          84 84 85 85 85 84 86 90 85 87 
          86 86 86 87 87 88 86 83 89 87 
          88 88 89 89 89 84 91 90 85 92 
          84 90 90 90 92 93 86 90 94 87 
          93 95 90 89 96 88 95 89 89 96 
          91 91 91 92 92 93 91 90 94 92 
          93 93 94 94 94 93 95 97 94 96 
          95 95 95 96 96 98 91 91 99 92 
          98 100 97 94 101 93 100 97 94 101 
          102 97 97 97 96 102 95 97 103 96 
          98 98 99 99 99 98 100 104 99 101 
          100 100 100 101 101 102 100 97 103 101 
          102 102 103 103 103 98 104 104 99 99 
          98 104 104 104 101 100 100 104 104 101 
          102 100 97 103 101 102 102 103 103 103 
          
        </DataArray>
        <DataArray type="Int32" Name="Processor" format="ascii">
          2 2 2 2 2 2 2 2 2 2 2 2 2 2 2 2 2 2 2 2 
          2 2 2 2 2 2 2 2 2 2 2 2 2 2 2 2 2 2 2 2 
          2 2 2 2 2 2 2 2 2 2 2 2 2 2 2 2 2 2 2 2 
          2 2 2 2 2 2 2 2 2 2 2 2 2 2 2 2 2 2 2 2 
          2 2 2 2 2 2 2 2 2 2 2 2 2 2 2 2 2 2 2 2 
          2 2 2 2 2 2 2 2 2 2 2 2 2 2 2 2 2 2 2 2 
          2 2 2 2 2 2 2 2 2 2 2 2 2 2 2 2 2 2 2 2 
          2 2 2 2 2 2 2 2 2 2 2 2 2 2 2 2 2 2 2 2 
          2 2 2 2 2 2 2 2 2 2 2 2 2 2 2 2 2 2 2 2 
          2 2 2 2 2 2 2 2 2 2 2 2 2 2 2 2 2 2 2 2 
          2 2 2 2 2 2 2 2 2 2 2 2 2 2 2 2 2 2 2 2 
          2 2 2 2 2 2 2 2 2 2 2 2 2 2 2 2 2 2 2 2 
          2 2 2 2 2 2 2 2 2 2 
        </DataArray>
      </PointData>
      <Points>
        <DataArray type="Float64" NumberOfComponents="3" format="ascii">
          0 0.555556 0 0.111111 0.555556 0 0.222222 0.555556 0 
          0.333333 0.555556 0 0.444444 0.555556 0 0 0.666667 0 
          0.111111 0.666667 0 0.222222 0.666667 0 0.333333 0.666667 0 
          0.444444 0.666667 0 0 0.777778 0 0.111111 0.777778 0 
          0.222222 0.777778 0 0.333333 0.777778 0 0.444444 0.777778 0 
          0 0.888889 0 0.111111 0.888889 0 0.222222 0.888889 0 
          0.333333 0.888889 0 0.444444 0.888889 0 0 1 0 
          0.111111 1 0 0.222222 1 0 0.333333 1 0 
          0.444444 1 0 0 0.555556 0.111111 0.111111 0.555556 0.111111 
          0.222222 0.555556 0.111111 0.333333 0.555556 0.111111 0.444444 0.555556 0.111111 
          0 0.666667 0.111111 0.111111 0.666667 0.111111 0.222222 0.666667 0.111111 
          0.333333 0.666667 0.111111 0.444444 0.666667 0.111111 0 0.777778 0.111111 
          0.111111 0.777778 0.111111 0.222222 0.777778 0.111111 0.333333 0.777778 0.111111 
          0.444444 0.777778 0.111111 0 0.888889 0.111111 0.111111 0.888889 0.111111 
          0.222222 0.888889 0.111111 0.333333 0.888889 0.111111 0.444444 0.888889 0.111111 
          0 1 0.111111 0.111111 1 0.111111 0.222222 1 0.111111 
          0.333333 1 0.111111 0.444444 1 0.111111 0 0.555556 0.222222 
          0.111111 0.555556 0.222222 0.222222 0.555556 0.222222 0.333333 0.555556 0.222222 
          0.444444 0.555556 0.222222 0 0.666667 0.222222 0.111111 0.666667 0.222222 
          0.222222 0.666667 0.222222 0.333333 0.666667 0.222222 0.444444 0.666667 0.222222 
          0 0.777778 0.222222 0.111111 0.777778 0.222222 0.222222 0.777778 0.222222 
          0.333333 0.777778 0.222222 0.444444 0.777778 0.222222 0 0.888889 0.222222 
          0.111111 0.888889 0.222222 0.222222 0.888889 0.222222 0.333333 0.888889 0.222222 
          0.444444 0.888889 0.222222 0 1 0.222222 0.111111 1 0.222222 
          0.222222 1 0.222222 0.333333 1 0.222222 0.444444 1 0.222222 
          0 0.555556 0.333333 0.111111 0.555556 0.333333 0.222222 0.555556 0.333333 
          0.333333 0.555556 0.333333 0.444444 0.555556 0.333333 0 0.666667 0.333333 
          0.111111 0.666667 0.333333 0.222222 0.666667 0.333333 0.333333 0.666667 0.333333 
          0.444444 0.666667 0.333333 0 0.777778 0.333333 0.111111 0.777778 0.333333 
          0.222222 0.777778 0.333333 0.333333 0.777778 0.333333 0.444444 0.777778 0.333333 
          0 0.888889 0.333333 0.111111 0.888889 0.333333 0.222222 0.888889 0.333333 
          0.333333 0.888889 0.333333 0.444444 0.888889 0.333333 0 1 0.333333 
          0.111111 1 0.333333 0.222222 1 0.333333 0.333333 1 0.333333 
          0.444444 1 0.333333 0 0.555556 0.444444 0.111111 0.555556 0.444444 
          0.222222 0.555556 0.444444 0.333333 0.555556 0.444444 0.444444 0.555556 0.444444 
          0 0.666667 0.444444 0.111111 0.666667 0.444444 0.222222 0.666667 0.444444 
          0.333333 0.666667 0.444444 0.444444 0.666667 0.444444 0 0.777778 0.444444 
          0.111111 0.777778 0.444444 0.222222 0.777778 0.444444 0.333333 0.777778 0.444444 
          0.444444 0.777778 0.444444 0 0.888889 0.444444 0.111111 0.888889 0.444444 
          0.222222 0.888889 0.444444 0.333333 0.888889 0.444444 0.444444 0.888889 0.444444 
          0 1 0.444444 0.111111 1 0.444444 0.222222 1 0.444444 
          0.333333 1 0.444444 0.444444 1 0.444444 0 0.555556 0.555556 
          0.111111 0.555556 0.555556 0.222222 0.555556 0.555556 0.333333 0.555556 0.555556 
          0.444444 0.555556 0.555556 0 0.666667 0.555556 0.111111 0.666667 0.555556 
          0.222222 0.666667 0.555556 0.333333 0.666667 0.555556 0.444444 0.666667 0.555556 
          0 0.777778 0.555556 0.111111 0.777778 0.555556 0.222222 0.777778 0.555556 
          0.333333 0.777778 0.555556 0.444444 0.777778 0.555556 0 0.888889 0.555556 
          0.111111 0.888889 0.555556 0.222222 0.888889 0.555556 0.333333 0.888889 0.555556 
          0.444444 0.888889 0.555556 0 1 0.555556 0.111111 1 0.555556 
          0.222222 1 0.555556 0.333333 1 0.555556 0.444444 1 0.555556 
          0 0.555556 0.666667 0.111111 0.555556 0.666667 0.222222 0.555556 0.666667 
          0.333333 0.555556 0.666667 0.444444 0.555556 0.666667 0 0.666667 0.666667 
          0.111111 0.666667 0.666667 0.222222 0.666667 0.666667 0.333333 0.666667 0.666667 
          0.444444 0.666667 0.666667 0 0.777778 0.666667 0.111111 0.777778 0.666667 
          0.222222 0.777778 0.666667 0.333333 0.777778 0.666667 0.444444 0.777778 0.666667 
          0 0.888889 0.666667 0.111111 0.888889 0.666667 0.222222 0.888889 0.666667 
          0.333333 0.888889 0.666667 0.444444 0.888889 0.666667 0 1 0.666667 
          0.111111 1 0.666667 0.222222 1 0.666667 0.333333 1 0.666667 
          0.444444 1 0.666667 0 0.555556 0.777778 0.111111 0.555556 0.777778 
          0.222222 0.555556 0.777778 0.333333 0.555556 0.777778 0.444444 0.555556 0.777778 
          0 0.666667 0.777778 0.111111 0.666667 0.777778 0.222222 0.666667 0.777778 
          0.333333 0.666667 0.777778 0.444444 0.666667 0.777778 0 0.777778 0.777778 
          0.111111 0.777778 0.777778 0.222222 0.777778 0.777778 0.333333 0.777778 0.777778 
          0.444444 0.777778 0.777778 0 0.888889 0.777778 0.111111 0.888889 0.777778 
          0.222222 0.888889 0.777778 0.333333 0.888889 0.777778 0.444444 0.888889 0.777778 
          0 1 0.777778 0.111111 1 0.777778 0.222222 1 0.777778 
          0.333333 1 0.777778 0.444444 1 0.777778 0 0.555556 0.888889 
          0.111111 0.555556 0.888889 0.222222 0.555556 0.888889 0.333333 0.555556 0.888889 
          0.444444 0.555556 0.888889 0 0.666667 0.888889 0.111111 0.666667 0.888889 
          0.222222 0.666667 0.888889 0.333333 0.666667 0.888889 0.444444 0.666667 0.888889 
          0 0.777778 0.888889 0.111111 0.777778 0.888889 0.222222 0.777778 0.888889 
          0.333333 0.777778 0.888889 0.444444 0.777778 0.888889 0 0.888889 0.888889 
          0.111111 0.888889 0.888889 0.222222 0.888889 0.888889 0.333333 0.888889 0.888889 
          0.444444 0.888889 0.888889 0 1 0.888889 0.111111 1 0.888889 
          0.222222 1 0.888889 0.333333 1 0.888889 0.444444 1 0.888889 
          0 0.555556 1 0.111111 0.555556 1 0.222222 0.555556 1 
          0.333333 0.555556 1 0.444444 0.555556 1 0 0.666667 1 
          0.111111 0.666667 1 0.222222 0.666667 1 0.333333 0.666667 1 
          0.444444 0.666667 1 0 0.777778 1 0.111111 0.777778 1 
          0.222222 0.777778 1 0.333333 0.777778 1 0.444444 0.777778 1 
          0 0.888889 1 0.111111 0.888889 1 0.222222 0.888889 1 
          0.333333 0.888889 1 0.444444 0.888889 1 0 1 1 
          0.111111 1 1 0.222222 1 1 0.333333 1 1 
          0.444444 1 1 
        </DataArray>
      </Points>
      <Cells>
        <DataArray type="Int32" Name="connectivity" format="ascii">
          0 1 2 3 4 5 6 7 8 9 
          10 11 12 13 14 15 16 17 18 19 
          20 21 22 23 24 25 26 27 28 29 
          30 31 32 33 34 35 36 37 38 39 
          40 41 42 43 44 45 46 47 48 49 
          50 51 52 53 54 55 56 57 58 59 
          60 61 62 63 64 65 66 67 68 69 
          70 71 72 73 74 75 76 77 78 79 
          80 81 82 83 84 85 86 87 88 89 
          90 91 92 93 94 95 96 97 98 99 
          100 101 102 103 104 105 106 107 108 109 
          110 111 112 113 114 115 116 117 118 119 
          120 121 122 123 124 125 126 127 128 129 
          130 131 132 133 134 135 136 137 138 139 
          140 141 142 143 144 145 146 147 148 149 
          150 151 152 153 154 155 156 157 158 159 
          160 161 162 163 164 165 166 167 168 169 
          170 171 172 173 174 175 176 177 178 179 
          180 181 182 183 184 185 186 187 188 189 
          190 191 192 193 194 195 196 197 198 199 
          200 201 202 203 204 205 206 207 208 209 
          210 211 212 213 214 215 216 217 218 219 
          220 221 222 223 224 225 226 227 228 229 
          230 231 232 233 234 235 236 237 238 239 
          240 241 242 243 244 245 246 247 248 249 
          
        </DataArray>
        <DataArray type="Int32" Name="offsets" format="ascii">
          1 2 3 4 5 6 7 8 9 10 
          11 12 13 14 15 16 17 18 19 20 
          21 22 23 24 25 26 27 28 29 30 
          31 32 33 34 35 36 37 38 39 40 
          41 42 43 44 45 46 47 48 49 50 
          51 52 53 54 55 56 57 58 59 60 
          61 62 63 64 65 66 67 68 69 70 
          71 72 73 74 75 76 77 78 79 80 
          81 82 83 84 85 86 87 88 89 90 
          91 92 93 94 95 96 97 98 99 100 
          101 102 103 104 105 106 107 108 109 110 
          111 112 113 114 115 116 117 118 119 120 
          121 122 123 124 125 126 127 128 129 130 
          131 132 133 134 135 136 137 138 139 140 
          141 142 143 144 145 146 147 148 149 150 
          151 152 153 154 155 156 157 158 159 160 
          161 162 163 164 165 166 167 168 169 170 
          171 172 173 174 175 176 177 178 179 180 
          181 182 183 184 185 186 187 188 189 190 
          191 192 193 194 195 196 197 198 199 200 
          201 202 203 204 205 206 207 208 209 210 
          211 212 213 214 215 216 217 218 219 220 
          221 222 223 224 225 226 227 228 229 230 
          231 232 233 234 235 236 237 238 239 240 
          241 242 243 244 245 246 247 248 249 250 
          
        </DataArray>
        <DataArray type="Int32" Name="types" format="ascii">
          1 1 1 1 1 1 1 1 1 1 1 1 1 1 1 1 1 1 1 1 1 1 1 1 1 1 1 1 1 1 
          1 1 1 1 1 1 1 1 1 1 1 1 1 1 1 1 1 1 1 1 1 1 1 1 1 1 1 1 1 1 
          1 1 1 1 1 1 1 1 1 1 1 1 1 1 1 1 1 1 1 1 1 1 1 1 1 1 1 1 1 1 
          1 1 1 1 1 1 1 1 1 1 1 1 1 1 1 1 1 1 1 1 1 1 1 1 1 1 1 1 1 1 
          1 1 1 1 1 1 1 1 1 1 1 1 1 1 1 1 1 1 1 1 1 1 1 1 1 1 1 1 1 1 
          1 1 1 1 1 1 1 1 1 1 1 1 1 1 1 1 1 1 1 1 1 1 1 1 1 1 1 1 1 1 
          1 1 1 1 1 1 1 1 1 1 1 1 1 1 1 1 1 1 1 1 1 1 1 1 1 1 1 1 1 1 
          1 1 1 1 1 1 1 1 1 1 1 1 1 1 1 1 1 1 1 1 1 1 1 1 1 1 1 1 1 1 
          1 1 1 1 1 1 1 1 1 1 
        </DataArray>
      </Cells>
    </Piece>
  </UnstructuredGrid>
</VTKFile>
