<!--Point Cloud Aggregates Visualization-->
<VTKFile type="UnstructuredGrid" byte_order="LittleEndian">
  <UnstructuredGrid>
    <Piece NumberOfPoints="250" NumberOfCells="250">
      <PointData Scalars="Node Aggregate Processor">
        <DataArray type="Int32" Name="Node" format="ascii">
          55 56 57 58 59 65 66 67 68 69
          75 76 77 78 79 85 86 87 88 89
          95 96 97 98 99 155 156 157 158 159
          165 166 167 168 169 175 176 177 178 179
          185 186 187 188 189 195 196 197 198 199
          255 256 257 258 259 265 266 267 268 269
          275 276 277 278 279 285 286 287 288 289
          295 296 297 298 299 355 356 357 358 359
          365 366 367 368 369 375 376 377 378 379
          385 386 387 388 389 395 396 397 398 399
          455 456 457 458 459 465 466 467 468 469
          475 476 477 478 479 485 486 487 488 489
          495 496 497 498 499 555 556 557 558 559
          565 566 567 568 569 575 576 577 578 579
          585 586 587 588 589 595 596 597 598 599
          655 656 657 658 659 665 666 667 668 669
          675 676 677 678 679 685 686 687 688 689
          695 696 697 698 699 755 756 757 758 759
          765 766 767 768 769 775 776 777 778 779
          785 786 787 788 789 795 796 797 798 799
          855 856 857 858 859 865 866 867 868 869
          875 876 877 878 879 885 886 887 888 889
          895 896 897 898 899 955 956 957 958 959
          965 966 967 968 969 975 976 977 978 979
          985 986 987 988 989 995 996 997 998 999

        </DataArray>
        <DataArray type="Int32" Name="Aggregate" format="ascii">
          105 105 106 106 106 105 107 111 106 108
          107 107 107 108 108 109 107 107 110 108
          109 109 110 110 110 105 112 111 106 113
          105 111 111 111 108 114 107 111 115 108
          109 116 111 110 117 109 116 110 110 117
          112 112 112 113 113 114 112 111 115 113
          114 114 115 115 115 114 116 118 115 117
          116 116 116 117 117 119 112 112 120 113
          114 121 118 115 113 114 121 118 115 122
          123 118 118 118 122 123 116 118 124 117
          119 119 120 120 120 119 121 125 120 122
          121 121 121 122 122 123 121 118 124 122
          123 123 124 124 124 119 126 125 120 127
          119 125 125 125 127 128 121 125 129 122
          128 130 125 124 131 123 130 124 124 131
          126 126 126 127 127 128 126 125 129 127
          128 128 129 129 129 128 130 132 129 131
          130 130 130 131 131 133 126 126 134 127
          133 135 132 129 136 128 135 132 129 136
          137 132 132 132 131 137 130 132 138 131
          133 133 134 134 134 133 135 139 134 136
          135 135 135 136 136 137 135 132 138 136
          137 137 138 138 138 133 139 139 134 134
          133 139 139 139 136 135 135 139 139 136
          137 135 132 138 136 137 137 138 138 138

        </DataArray>
        <DataArray type="Int32" Name="Processor" format="ascii">
          3 3 3 3 3 3 3 3 3 3 3 3 3 3 3 3 3 3 3 3
          3 3 3 3 3 3 3 3 3 3 3 3 3 3 3 3 3 3 3 3
          3 3 3 3 3 3 3 3 3 3 3 3 3 3 3 3 3 3 3 3
          3 3 3 3 3 3 3 3 3 3 3 3 3 3 3 3 3 3 3 3
          3 3 3 3 3 3 3 3 3 3 3 3 3 3 3 3 3 3 3 3
          3 3 3 3 3 3 3 3 3 3 3 3 3 3 3 3 3 3 3 3
          3 3 3 3 3 3 3 3 3 3 3 3 3 3 3 3 3 3 3 3
          3 3 3 3 3 3 3 3 3 3 3 3 3 3 3 3 3 3 3 3
          3 3 3 3 3 3 3 3 3 3 3 3 3 3 3 3 3 3 3 3
          3 3 3 3 3 3 3 3 3 3 3 3 3 3 3 3 3 3 3 3
          3 3 3 3 3 3 3 3 3 3 3 3 3 3 3 3 3 3 3 3
          3 3 3 3 3 3 3 3 3 3 3 3 3 3 3 3 3 3 3 3
          3 3 3 3 3 3 3 3 3 3
        </DataArray>
        <DataArray type="Float64" Name="Quality" format="ascii">
          9.65407 9.65407 11.4043 11.4043 11.4043 9.65407 12.2712 26.5197 11.4043 6.35236
          12.2712 12.2712 12.2712 6.35236 6.35236 7.10619 12.2712 12.2712 7.73649 6.35236
          7.10619 7.10619 7.73649 7.73649 7.73649 9.65407 16.5078 26.5197 11.4043 12.3728
          9.65407 26.5197 26.5197 26.5197 6.35236 16.5078 12.2712 26.5197 17.0714 6.35236
          7.10619 11.8886 26.5197 7.73649 6.35236 7.10619 11.8886 7.73649 7.73649 6.35236
          16.5078 16.5078 16.5078 12.3728 12.3728 16.5078 16.5078 26.5197 17.0714 12.3728
          16.5078 16.5078 17.0714 17.0714 17.0714 16.5078 11.8886 26.5197 17.0714 6.35236
          11.8886 11.8886 11.8886 6.35236 6.35236 15.7082 16.5078 16.5078 12 12.3728
          16.5078 17.0714 26.5197 17.0714 12.3728 16.5078 17.0714 26.5197 17.0714 12.2712
          11.0268 26.5197 26.5197 26.5197 12.2712 11.0268 11.8886 26.5197 11.3048 6.35236
          15.7082 15.7082 12 12 12 15.7082 17.0714 26.5197 12 12.2712
          17.0714 17.0714 17.0714 12.2712 12.2712 11.0268 17.0714 26.5197 11.3048 12.2712
          11.0268 11.0268 11.3048 11.3048 11.3048 15.7082 16.5078 26.5197 12 12.3728
          15.7082 26.5197 26.5197 26.5197 12.3728 16.5078 17.0714 26.5197 17.0714 12.2712
          16.5078 11.8886 26.5197 11.3048 6.37469 11.0268 11.8886 11.3048 11.3048 6.37469
          16.5078 16.5078 16.5078 12.3728 12.3728 16.5078 16.5078 26.5197 17.0714 12.3728
          16.5078 16.5078 17.0714 17.0714 17.0714 16.5078 11.8886 28.5123 17.0714 6.37469
          11.8886 11.8886 11.8886 6.37469 6.37469 14.0596 16.5078 16.5078 15.9512 12.3728
          14.0596 21.4164 28.5123 17.0714 12.8711 16.5078 21.4164 28.5123 17.0714 12.8711
          9.59794 28.5123 28.5123 28.5123 6.37469 9.59794 11.8886 28.5123 7.93666 6.37469
          14.0596 14.0596 15.9512 15.9512 15.9512 14.0596 21.4164 12.6149 15.9512 12.8711
          21.4164 21.4164 21.4164 12.8711 12.8711 9.59794 21.4164 28.5123 7.93666 12.8711
          9.59794 9.59794 7.93666 7.93666 7.93666 14.0596 12.6149 12.6149 15.9512 15.9512
          14.0596 12.6149 12.6149 12.6149 12.8711 21.4164 21.4164 12.6149 12.6149 12.8711
          9.59794 21.4164 28.5123 7.93666 12.8711 9.59794 9.59794 7.93666 7.93666 7.93666

        </DataArray>
      </PointData>
      <Points>
        <DataArray type="Float64" NumberOfComponents="3" format="ascii">
          0.555556 0.555556 0 0.666667 0.555556 0 0.777778 0.555556 0
          0.888889 0.555556 0 1 0.555556 0 0.555556 0.666667 0
          0.666667 0.666667 0 0.777778 0.666667 0 0.888889 0.666667 0
          1 0.666667 0 0.555556 0.777778 0 0.666667 0.777778 0
          0.777778 0.777778 0 0.888889 0.777778 0 1 0.777778 0
          0.555556 0.888889 0 0.666667 0.888889 0 0.777778 0.888889 0
          0.888889 0.888889 0 1 0.888889 0 0.555556 1 0
          0.666667 1 0 0.777778 1 0 0.888889 1 0
          1 1 0 0.555556 0.555556 0.111111 0.666667 0.555556 0.111111
          0.777778 0.555556 0.111111 0.888889 0.555556 0.111111 1 0.555556 0.111111
          0.555556 0.666667 0.111111 0.666667 0.666667 0.111111 0.777778 0.666667 0.111111
          0.888889 0.666667 0.111111 1 0.666667 0.111111 0.555556 0.777778 0.111111
          0.666667 0.777778 0.111111 0.777778 0.777778 0.111111 0.888889 0.777778 0.111111
          1 0.777778 0.111111 0.555556 0.888889 0.111111 0.666667 0.888889 0.111111
          0.777778 0.888889 0.111111 0.888889 0.888889 0.111111 1 0.888889 0.111111
          0.555556 1 0.111111 0.666667 1 0.111111 0.777778 1 0.111111
          0.888889 1 0.111111 1 1 0.111111 0.555556 0.555556 0.222222
          0.666667 0.555556 0.222222 0.777778 0.555556 0.222222 0.888889 0.555556 0.222222
          1 0.555556 0.222222 0.555556 0.666667 0.222222 0.666667 0.666667 0.222222
          0.777778 0.666667 0.222222 0.888889 0.666667 0.222222 1 0.666667 0.222222
          0.555556 0.777778 0.222222 0.666667 0.777778 0.222222 0.777778 0.777778 0.222222
          0.888889 0.777778 0.222222 1 0.777778 0.222222 0.555556 0.888889 0.222222
          0.666667 0.888889 0.222222 0.777778 0.888889 0.222222 0.888889 0.888889 0.222222
          1 0.888889 0.222222 0.555556 1 0.222222 0.666667 1 0.222222
          0.777778 1 0.222222 0.888889 1 0.222222 1 1 0.222222
          0.555556 0.555556 0.333333 0.666667 0.555556 0.333333 0.777778 0.555556 0.333333
          0.888889 0.555556 0.333333 1 0.555556 0.333333 0.555556 0.666667 0.333333
          0.666667 0.666667 0.333333 0.777778 0.666667 0.333333 0.888889 0.666667 0.333333
          1 0.666667 0.333333 0.555556 0.777778 0.333333 0.666667 0.777778 0.333333
          0.777778 0.777778 0.333333 0.888889 0.777778 0.333333 1 0.777778 0.333333
          0.555556 0.888889 0.333333 0.666667 0.888889 0.333333 0.777778 0.888889 0.333333
          0.888889 0.888889 0.333333 1 0.888889 0.333333 0.555556 1 0.333333
          0.666667 1 0.333333 0.777778 1 0.333333 0.888889 1 0.333333
          1 1 0.333333 0.555556 0.555556 0.444444 0.666667 0.555556 0.444444
          0.777778 0.555556 0.444444 0.888889 0.555556 0.444444 1 0.555556 0.444444
          0.555556 0.666667 0.444444 0.666667 0.666667 0.444444 0.777778 0.666667 0.444444
          0.888889 0.666667 0.444444 1 0.666667 0.444444 0.555556 0.777778 0.444444
          0.666667 0.777778 0.444444 0.777778 0.777778 0.444444 0.888889 0.777778 0.444444
          1 0.777778 0.444444 0.555556 0.888889 0.444444 0.666667 0.888889 0.444444
          0.777778 0.888889 0.444444 0.888889 0.888889 0.444444 1 0.888889 0.444444
          0.555556 1 0.444444 0.666667 1 0.444444 0.777778 1 0.444444
          0.888889 1 0.444444 1 1 0.444444 0.555556 0.555556 0.555556
          0.666667 0.555556 0.555556 0.777778 0.555556 0.555556 0.888889 0.555556 0.555556
          1 0.555556 0.555556 0.555556 0.666667 0.555556 0.666667 0.666667 0.555556
          0.777778 0.666667 0.555556 0.888889 0.666667 0.555556 1 0.666667 0.555556
          0.555556 0.777778 0.555556 0.666667 0.777778 0.555556 0.777778 0.777778 0.555556
          0.888889 0.777778 0.555556 1 0.777778 0.555556 0.555556 0.888889 0.555556
          0.666667 0.888889 0.555556 0.777778 0.888889 0.555556 0.888889 0.888889 0.555556
          1 0.888889 0.555556 0.555556 1 0.555556 0.666667 1 0.555556
          0.777778 1 0.555556 0.888889 1 0.555556 1 1 0.555556
          0.555556 0.555556 0.666667 0.666667 0.555556 0.666667 0.777778 0.555556 0.666667
          0.888889 0.555556 0.666667 1 0.555556 0.666667 0.555556 0.666667 0.666667
          0.666667 0.666667 0.666667 0.777778 0.666667 0.666667 0.888889 0.666667 0.666667
          1 0.666667 0.666667 0.555556 0.777778 0.666667 0.666667 0.777778 0.666667
          0.777778 0.777778 0.666667 0.888889 0.777778 0.666667 1 0.777778 0.666667
          0.555556 0.888889 0.666667 0.666667 0.888889 0.666667 0.777778 0.888889 0.666667
          0.888889 0.888889 0.666667 1 0.888889 0.666667 0.555556 1 0.666667
          0.666667 1 0.666667 0.777778 1 0.666667 0.888889 1 0.666667
          1 1 0.666667 0.555556 0.555556 0.777778 0.666667 0.555556 0.777778
          0.777778 0.555556 0.777778 0.888889 0.555556 0.777778 1 0.555556 0.777778
          0.555556 0.666667 0.777778 0.666667 0.666667 0.777778 0.777778 0.666667 0.777778
          0.888889 0.666667 0.777778 1 0.666667 0.777778 0.555556 0.777778 0.777778
          0.666667 0.777778 0.777778 0.777778 0.777778 0.777778 0.888889 0.777778 0.777778
          1 0.777778 0.777778 0.555556 0.888889 0.777778 0.666667 0.888889 0.777778
          0.777778 0.888889 0.777778 0.888889 0.888889 0.777778 1 0.888889 0.777778
          0.555556 1 0.777778 0.666667 1 0.777778 0.777778 1 0.777778
          0.888889 1 0.777778 1 1 0.777778 0.555556 0.555556 0.888889
          0.666667 0.555556 0.888889 0.777778 0.555556 0.888889 0.888889 0.555556 0.888889
          1 0.555556 0.888889 0.555556 0.666667 0.888889 0.666667 0.666667 0.888889
          0.777778 0.666667 0.888889 0.888889 0.666667 0.888889 1 0.666667 0.888889
          0.555556 0.777778 0.888889 0.666667 0.777778 0.888889 0.777778 0.777778 0.888889
          0.888889 0.777778 0.888889 1 0.777778 0.888889 0.555556 0.888889 0.888889
          0.666667 0.888889 0.888889 0.777778 0.888889 0.888889 0.888889 0.888889 0.888889
          1 0.888889 0.888889 0.555556 1 0.888889 0.666667 1 0.888889
          0.777778 1 0.888889 0.888889 1 0.888889 1 1 0.888889
          0.555556 0.555556 1 0.666667 0.555556 1 0.777778 0.555556 1
          0.888889 0.555556 1 1 0.555556 1 0.555556 0.666667 1
          0.666667 0.666667 1 0.777778 0.666667 1 0.888889 0.666667 1
          1 0.666667 1 0.555556 0.777778 1 0.666667 0.777778 1
          0.777778 0.777778 1 0.888889 0.777778 1 1 0.777778 1
          0.555556 0.888889 1 0.666667 0.888889 1 0.777778 0.888889 1
          0.888889 0.888889 1 1 0.888889 1 0.555556 1 1
          0.666667 1 1 0.777778 1 1 0.888889 1 1
          1 1 1
        </DataArray>
      </Points>
      <Cells>
        <DataArray type="Int32" Name="connectivity" format="ascii">
          0 1 2 3 4 5 6 7 8 9
          10 11 12 13 14 15 16 17 18 19
          20 21 22 23 24 25 26 27 28 29
          30 31 32 33 34 35 36 37 38 39
          40 41 42 43 44 45 46 47 48 49
          50 51 52 53 54 55 56 57 58 59
          60 61 62 63 64 65 66 67 68 69
          70 71 72 73 74 75 76 77 78 79
          80 81 82 83 84 85 86 87 88 89
          90 91 92 93 94 95 96 97 98 99
          100 101 102 103 104 105 106 107 108 109
          110 111 112 113 114 115 116 117 118 119
          120 121 122 123 124 125 126 127 128 129
          130 131 132 133 134 135 136 137 138 139
          140 141 142 143 144 145 146 147 148 149
          150 151 152 153 154 155 156 157 158 159
          160 161 162 163 164 165 166 167 168 169
          170 171 172 173 174 175 176 177 178 179
          180 181 182 183 184 185 186 187 188 189
          190 191 192 193 194 195 196 197 198 199
          200 201 202 203 204 205 206 207 208 209
          210 211 212 213 214 215 216 217 218 219
          220 221 222 223 224 225 226 227 228 229
          230 231 232 233 234 235 236 237 238 239
          240 241 242 243 244 245 246 247 248 249

        </DataArray>
        <DataArray type="Int32" Name="offsets" format="ascii">
          1 2 3 4 5 6 7 8 9 10
          11 12 13 14 15 16 17 18 19 20
          21 22 23 24 25 26 27 28 29 30
          31 32 33 34 35 36 37 38 39 40
          41 42 43 44 45 46 47 48 49 50
          51 52 53 54 55 56 57 58 59 60
          61 62 63 64 65 66 67 68 69 70
          71 72 73 74 75 76 77 78 79 80
          81 82 83 84 85 86 87 88 89 90
          91 92 93 94 95 96 97 98 99 100
          101 102 103 104 105 106 107 108 109 110
          111 112 113 114 115 116 117 118 119 120
          121 122 123 124 125 126 127 128 129 130
          131 132 133 134 135 136 137 138 139 140
          141 142 143 144 145 146 147 148 149 150
          151 152 153 154 155 156 157 158 159 160
          161 162 163 164 165 166 167 168 169 170
          171 172 173 174 175 176 177 178 179 180
          181 182 183 184 185 186 187 188 189 190
          191 192 193 194 195 196 197 198 199 200
          201 202 203 204 205 206 207 208 209 210
          211 212 213 214 215 216 217 218 219 220
          221 222 223 224 225 226 227 228 229 230
          231 232 233 234 235 236 237 238 239 240
          241 242 243 244 245 246 247 248 249 250

        </DataArray>
        <DataArray type="Int32" Name="types" format="ascii">
          1 1 1 1 1 1 1 1 1 1 1 1 1 1 1 1 1 1 1 1 1 1 1 1 1 1 1 1 1 1
          1 1 1 1 1 1 1 1 1 1 1 1 1 1 1 1 1 1 1 1 1 1 1 1 1 1 1 1 1 1
          1 1 1 1 1 1 1 1 1 1 1 1 1 1 1 1 1 1 1 1 1 1 1 1 1 1 1 1 1 1
          1 1 1 1 1 1 1 1 1 1 1 1 1 1 1 1 1 1 1 1 1 1 1 1 1 1 1 1 1 1
          1 1 1 1 1 1 1 1 1 1 1 1 1 1 1 1 1 1 1 1 1 1 1 1 1 1 1 1 1 1
          1 1 1 1 1 1 1 1 1 1 1 1 1 1 1 1 1 1 1 1 1 1 1 1 1 1 1 1 1 1
          1 1 1 1 1 1 1 1 1 1 1 1 1 1 1 1 1 1 1 1 1 1 1 1 1 1 1 1 1 1
          1 1 1 1 1 1 1 1 1 1 1 1 1 1 1 1 1 1 1 1 1 1 1 1 1 1 1 1 1 1
          1 1 1 1 1 1 1 1 1 1
        </DataArray>
      </Cells>
    </Piece>
  </UnstructuredGrid>
</VTKFile>