<!--Convex Hulls Aggregates Visualization-->
<VTKFile type="UnstructuredGrid" byte_order="LittleEndian">
  <UnstructuredGrid>
    <Piece NumberOfPoints="207" NumberOfCells="274">
      <PointData Scalars="Node Aggregate Processor">
        <DataArray type="Int32" Name="Node" format="ascii">
          50 51 52 54 60 61 62 63 64 70
          72 73 80 81 82 83 84 90 91 92
          94 150 151 152 153 154 160 161 163 164
          170 171 173 174 180 181 182 183 184 190
          191 192 193 194 250 252 253 260 261 262
          263 264 271 272 274 280 281 282 283 284
          290 292 293 350 351 352 353 354 360 361
          362 363 364 370 371 373 374 380 381 383
          384 390 391 392 393 394 451 452 454 460
          461 462 463 464 470 472 473 480 481 482
          483 484 491 492 494 550 551 552 553 554
          560 561 563 564 570 571 573 574 580 581
          582 583 584 590 591 592 593 594 650 652
          653 660 661 662 663 664 671 672 674 680
          681 682 683 690 692 693 750 751 752 753
          754 760 761 762 763 764 770 771 773 774
          780 781 783 784 790 791 792 793 794 851
          852 854 861 862 863 870 872 873 881 883
          884 891 892 894 950 951 952 953 954 960
          961 963 964 970 971 972 973 980 981 982
          983 984 990 991 992 993 994
        </DataArray>
        <DataArray type="Int32" Name="Aggregate" format="ascii">
          70 70 71 71 70 72 76 71 73 72
          72 73 74 72 72 75 73 74 74 75
          75 70 77 76 71 78 70 76 76 73
          79 72 80 73 74 81 76 75 82 74
          81 75 75 82 77 77 78 79 77 76
          80 78 79 80 80 79 81 83 80 82
          81 81 82 84 77 77 85 78 79 86
          83 80 78 79 86 80 87 88 83 83
          87 88 81 83 89 82 84 85 85 84
          86 90 85 87 86 86 87 88 86 83
          89 87 88 89 89 84 91 90 85 92
          84 90 90 92 93 86 94 87 93 95
          90 89 96 88 95 89 89 96 91 91
          92 93 91 90 94 92 93 94 94 93
          95 97 94 95 95 96 98 91 91 99
          92 98 100 97 94 101 93 100 94 101
          102 97 97 96 102 95 97 103 96 98
          99 99 100 104 99 100 100 101 100 103
          101 102 103 103 98 104 104 99 99 98
          104 104 101 100 100 104 104 102 100 97
          103 101 102 102 103 103 103
        </DataArray>
        <DataArray type="Int32" Name="Processor" format="ascii">
          2 2 2 2 2 2 2 2 2 2 2 2 2 2 2 2 2 2 2 2
          2 2 2 2 2 2 2 2 2 2 2 2 2 2 2 2 2 2 2 2
          2 2 2 2 2 2 2 2 2 2 2 2 2 2 2 2 2 2 2 2
          2 2 2 2 2 2 2 2 2 2 2 2 2 2 2 2 2 2 2 2
          2 2 2 2 2 2 2 2 2 2 2 2 2 2 2 2 2 2 2 2
          2 2 2 2 2 2 2 2 2 2 2 2 2 2 2 2 2 2 2 2
          2 2 2 2 2 2 2 2 2 2 2 2 2 2 2 2 2 2 2 2
          2 2 2 2 2 2 2 2 2 2 2 2 2 2 2 2 2 2 2 2
          2 2 2 2 2 2 2 2 2 2 2 2 2 2 2 2 2 2 2 2
          2 2 2 2 2 2 2 2 2 2 2 2 2 2 2 2 2 2 2 2
          2 2 2 2 2 2 2
        </DataArray>
        <DataArray type="Float64" Name="Quality" format="ascii">
          6.36105 6.36105 11.423 11.423 6.36105 12.2679 26.5197 11.423 11.0268 12.2679
          12.2679 11.0268 4.71117 12.2679 12.2679 7.81935 11.0268 4.71117 4.71117 7.81935
          7.81935 6.36105 16.5078 26.5197 11.423 15.7082 6.36105 26.5197 26.5197 11.0268
          12.2712 12.2679 17.0714 11.0268 4.71117 11.7696 26.5197 7.81935 11.0268 4.71117
          11.7696 7.81935 7.81935 11.0268 16.5078 16.5078 15.7082 12.2712 16.5078 26.5197
          17.0714 15.7082 12.2712 17.0714 17.0714 12.2712 11.7696 26.5197 17.0714 11.0268
          11.7696 11.7696 11.0268 12.3728 16.5078 16.5078 12 15.7082 12.2712 17.0714
          26.5197 17.0714 15.7082 12.2712 17.0714 17.0714 16.5078 6.35236 26.5197 26.5197
          16.5078 6.35236 11.7696 26.5197 11.377 11.0268 12.3728 12 12 12.3728
          17.0714 26.5197 12 16.5078 17.0714 17.0714 16.5078 6.35236 17.0714 26.5197
          11.377 16.5078 6.35236 11.377 11.377 12.3728 16.5078 26.5197 12 15.7082
          12.3728 26.5197 26.5197 15.7082 12.2712 17.0714 17.0714 16.5078 12.2712 11.7696
          26.5197 11.377 9.04703 6.35236 11.7696 11.377 11.377 9.04703 16.5078 16.5078
          15.7082 12.2712 16.5078 26.5197 17.0714 15.7082 12.2712 17.0714 17.0714 12.2712
          11.7696 28.5123 17.0714 11.7696 11.7696 9.04703 12.8435 16.5078 16.5078 16.2073
          15.7082 12.8435 21.217 28.5123 17.0714 14.6789 12.2712 21.217 17.0714 14.6789
          5.63662 28.5123 28.5123 9.04703 5.63662 11.7696 28.5123 7.99012 9.04703 12.8435
          16.2073 16.2073 21.217 12.6149 16.2073 21.217 21.217 14.6789 21.217 7.99012
          14.6789 5.63662 7.99012 7.99012 12.8435 12.6149 12.6149 16.2073 16.2073 12.8435
          12.6149 12.6149 14.6789 21.217 21.217 12.6149 12.6149 5.63662 21.217 28.5123
          7.99012 14.6789 5.63662 5.63662 7.99012 7.99012 7.99012
        </DataArray>
      </PointData>
      <Points>
        <DataArray type="Float64" NumberOfComponents="3" format="ascii">
          0 0.555556 0 0.111111 0.555556 0 0.222222 0.555556 0
          0.444444 0.555556 0 0 0.666667 0 0.111111 0.666667 0
          0.222222 0.666667 0 0.333333 0.666667 0 0.444444 0.666667 0
          0 0.777778 0 0.222222 0.777778 0 0.333333 0.777778 0
          0 0.888889 0 0.111111 0.888889 0 0.222222 0.888889 0
          0.333333 0.888889 0 0.444444 0.888889 0 0 1 0
          0.111111 1 0 0.222222 1 0 0.444444 1 0
          0 0.555556 0.111111 0.111111 0.555556 0.111111 0.222222 0.555556 0.111111
          0.333333 0.555556 0.111111 0.444444 0.555556 0.111111 0 0.666667 0.111111
          0.111111 0.666667 0.111111 0.333333 0.666667 0.111111 0.444444 0.666667 0.111111
          0 0.777778 0.111111 0.111111 0.777778 0.111111 0.333333 0.777778 0.111111
          0.444444 0.777778 0.111111 0 0.888889 0.111111 0.111111 0.888889 0.111111
          0.222222 0.888889 0.111111 0.333333 0.888889 0.111111 0.444444 0.888889 0.111111
          0 1 0.111111 0.111111 1 0.111111 0.222222 1 0.111111
          0.333333 1 0.111111 0.444444 1 0.111111 0 0.555556 0.222222
          0.222222 0.555556 0.222222 0.333333 0.555556 0.222222 0 0.666667 0.222222
          0.111111 0.666667 0.222222 0.222222 0.666667 0.222222 0.333333 0.666667 0.222222
          0.444444 0.666667 0.222222 0.111111 0.777778 0.222222 0.222222 0.777778 0.222222
          0.444444 0.777778 0.222222 0 0.888889 0.222222 0.111111 0.888889 0.222222
          0.222222 0.888889 0.222222 0.333333 0.888889 0.222222 0.444444 0.888889 0.222222
          0 1 0.222222 0.222222 1 0.222222 0.333333 1 0.222222
          0 0.555556 0.333333 0.111111 0.555556 0.333333 0.222222 0.555556 0.333333
          0.333333 0.555556 0.333333 0.444444 0.555556 0.333333 0 0.666667 0.333333
          0.111111 0.666667 0.333333 0.222222 0.666667 0.333333 0.333333 0.666667 0.333333
          0.444444 0.666667 0.333333 0 0.777778 0.333333 0.111111 0.777778 0.333333
          0.333333 0.777778 0.333333 0.444444 0.777778 0.333333 0 0.888889 0.333333
          0.111111 0.888889 0.333333 0.333333 0.888889 0.333333 0.444444 0.888889 0.333333
          0 1 0.333333 0.111111 1 0.333333 0.222222 1 0.333333
          0.333333 1 0.333333 0.444444 1 0.333333 0.111111 0.555556 0.444444
          0.222222 0.555556 0.444444 0.444444 0.555556 0.444444 0 0.666667 0.444444
          0.111111 0.666667 0.444444 0.222222 0.666667 0.444444 0.333333 0.666667 0.444444
          0.444444 0.666667 0.444444 0 0.777778 0.444444 0.222222 0.777778 0.444444
          0.333333 0.777778 0.444444 0 0.888889 0.444444 0.111111 0.888889 0.444444
          0.222222 0.888889 0.444444 0.333333 0.888889 0.444444 0.444444 0.888889 0.444444
          0.111111 1 0.444444 0.222222 1 0.444444 0.444444 1 0.444444
          0 0.555556 0.555556 0.111111 0.555556 0.555556 0.222222 0.555556 0.555556
          0.333333 0.555556 0.555556 0.444444 0.555556 0.555556 0 0.666667 0.555556
          0.111111 0.666667 0.555556 0.333333 0.666667 0.555556 0.444444 0.666667 0.555556
          0 0.777778 0.555556 0.111111 0.777778 0.555556 0.333333 0.777778 0.555556
          0.444444 0.777778 0.555556 0 0.888889 0.555556 0.111111 0.888889 0.555556
          0.222222 0.888889 0.555556 0.333333 0.888889 0.555556 0.444444 0.888889 0.555556
          0 1 0.555556 0.111111 1 0.555556 0.222222 1 0.555556
          0.333333 1 0.555556 0.444444 1 0.555556 0 0.555556 0.666667
          0.222222 0.555556 0.666667 0.333333 0.555556 0.666667 0 0.666667 0.666667
          0.111111 0.666667 0.666667 0.222222 0.666667 0.666667 0.333333 0.666667 0.666667
          0.444444 0.666667 0.666667 0.111111 0.777778 0.666667 0.222222 0.777778 0.666667
          0.444444 0.777778 0.666667 0 0.888889 0.666667 0.111111 0.888889 0.666667
          0.222222 0.888889 0.666667 0.333333 0.888889 0.666667 0 1 0.666667
          0.222222 1 0.666667 0.333333 1 0.666667 0 0.555556 0.777778
          0.111111 0.555556 0.777778 0.222222 0.555556 0.777778 0.333333 0.555556 0.777778
          0.444444 0.555556 0.777778 0 0.666667 0.777778 0.111111 0.666667 0.777778
          0.222222 0.666667 0.777778 0.333333 0.666667 0.777778 0.444444 0.666667 0.777778
          0 0.777778 0.777778 0.111111 0.777778 0.777778 0.333333 0.777778 0.777778
          0.444444 0.777778 0.777778 0 0.888889 0.777778 0.111111 0.888889 0.777778
          0.333333 0.888889 0.777778 0.444444 0.888889 0.777778 0 1 0.777778
          0.111111 1 0.777778 0.222222 1 0.777778 0.333333 1 0.777778
          0.444444 1 0.777778 0.111111 0.555556 0.888889 0.222222 0.555556 0.888889
          0.444444 0.555556 0.888889 0.111111 0.666667 0.888889 0.222222 0.666667 0.888889
          0.333333 0.666667 0.888889 0 0.777778 0.888889 0.222222 0.777778 0.888889
          0.333333 0.777778 0.888889 0.111111 0.888889 0.888889 0.333333 0.888889 0.888889
          0.444444 0.888889 0.888889 0.111111 1 0.888889 0.222222 1 0.888889
          0.444444 1 0.888889 0 0.555556 1 0.111111 0.555556 1
          0.222222 0.555556 1 0.333333 0.555556 1 0.444444 0.555556 1
          0 0.666667 1 0.111111 0.666667 1 0.333333 0.666667 1
          0.444444 0.666667 1 0 0.777778 1 0.111111 0.777778 1
          0.222222 0.777778 1 0.333333 0.777778 1 0 0.888889 1
          0.111111 0.888889 1 0.222222 0.888889 1 0.333333 0.888889 1
          0.444444 0.888889 1 0 1 1 0.111111 1 1
          0.222222 1 1 0.333333 1 1 0.444444 1 1

        </DataArray>
      </Points>
      <Cells>
        <DataArray type="Int32" Name="connectivity" format="ascii">
          26 4 0 4 1 0 26 1 4 0
          1 21 26 0 21 1 26 21 3 2
          7 24 3 7 2 24 7 2 3 24
          9 14 5 31 9 5 5 14 10 31
          5 10 14 31 10 14 9 13 9 31
          13 31 14 13 16 8 11 8 29 11
          8 16 29 16 11 33 11 29 33 29
          16 33 18 17 39 17 12 39 18 12
          17 12 18 34 39 12 34 18 39 34
          15 20 37 19 15 37 19 20 15 20
          19 42 37 20 42 19 37 41 42 19
          41 37 42 41 27 36 6 23 27 6
          23 6 28 6 36 28 27 23 49 23
          28 49 36 27 49 28 36 49 65 44
          22 44 48 22 22 48 45 65 22 45
          48 65 45 48 44 64 44 65 64 65
          48 64 25 67 46 67 72 46 25 72
          67 25 46 51 72 25 51 46 72 51
          47 55 30 55 52 30 52 47 30 55
          47 73 52 55 73 47 52 68 73 47
          68 52 73 68 53 71 75 71 54 75
          32 53 58 54 32 58 53 75 58 75
          54 58 53 32 50 32 54 50 71 53
          50 54 71 50 82 40 60 40 35 60
          60 35 56 82 60 56 35 40 61 56
          35 61 40 82 61 82 56 61 43 38
          62 85 43 62 85 38 43 62 38 59
          38 85 59 85 62 59 78 83 57 70
          78 57 70 57 79 57 83 79 78 70
          99 70 79 99 83 78 99 79 83 99
          110 105 86 105 63 86 110 63 105 86
          63 89 63 110 89 110 86 89 88 87
          66 92 88 66 87 92 66 87 88 108
          92 87 108 88 92 108 98 94 115 98
          115 95 94 69 90 69 95 90 115 94
          90 95 115 90 69 94 74 95 69 74
          94 98 74 98 95 74 101 93 76 93
          96 76 76 96 80 101 76 80 96 101
          80 96 93 117 93 101 117 101 96 117
          81 123 102 77 81 102 77 123 81 77
          102 97 123 77 97 102 123 97 103 104
          84 104 103 126 121 104 126 103 121 125
          126 103 125 121 126 125 103 84 100 84
          104 100 121 103 100 104 121 100 111 120
          91 107 111 91 107 91 112 91 120 112
          111 107 133 107 112 133 120 111 133 112
          120 133 148 128 106 128 132 106 106 132
          129 148 106 129 132 148 129 132 128 147
          128 148 147 148 132 147 150 109 113 109
          130 113 109 150 130 113 130 135 150 113
          135 130 150 135 131 139 114 136 131 114
          136 114 118 114 139 118 139 136 118 131
          136 156 139 131 156 136 139 156 137 142
          116 116 142 138 137 116 134 116 138 134
          154 137 134 138 154 134 142 137 158 137
          154 158 138 142 158 154 138 158 165 124
          143 124 119 143 143 119 140 165 143 140
          119 124 144 140 119 144 124 165 144 165
          140 144 127 122 145 168 127 145 168 122
          127 145 122 163 122 168 163 168 145 163
          166 161 199 161 153 199 199 153 162 166
          199 162 153 161 141 162 153 141 161 166
          141 166 162 141 151 189 169 146 151 169
          146 189 151 146 169 184 189 146 184 169
          189 184 188 170 149 170 174 149 149 174
          171 188 149 171 174 188 171 174 170 187
          170 188 187 188 174 187 198 193 194 193
          152 172 194 193 172 152 157 176 172 152
          176 194 172 176 198 194 176 176 157 178
          198 176 178 193 198 178 157 152 175 152
          193 175 178 157 175 193 178 175 155 201
          192 177 155 192 201 177 192 201 155 180
          177 201 180 155 177 159 180 155 159 177
          180 159 160 203 197 164 160 197 164 197
          202 203 164 202 197 203 202 160 164 181
          203 160 181 164 203 181 182 206 167 179
          182 167 179 167 183 167 206 183 206 179
          183 206 182 205 182 179 204 205 182 204
          204 179 200 179 206 200 205 204 200 206
          205 200 186 185 173 196 185 186 196 173
          195 185 196 195 173 185 190 195 173 190
          185 195 190 186 173 191 173 196 191 196
          186 191
        </DataArray>
        <DataArray type="Int32" Name="offsets" format="ascii">
          3 6 9 12 15 18 21 24 27 30
          33 36 39 42 45 48 51 54 57 60
          63 66 69 72 75 78 81 84 87 90
          93 96 99 102 105 108 111 114 117 120
          123 126 129 132 135 138 141 144 147 150
          153 156 159 162 165 168 171 174 177 180
          183 186 189 192 195 198 201 204 207 210
          213 216 219 222 225 228 231 234 237 240
          243 246 249 252 255 258 261 264 267 270
          273 276 279 282 285 288 291 294 297 300
          303 306 309 312 315 318 321 324 327 330
          333 336 339 342 345 348 351 354 357 360
          363 366 369 372 375 378 381 384 387 390
          393 396 399 402 405 408 411 414 417 420
          423 426 429 432 435 438 441 444 447 450
          453 456 459 462 465 468 471 474 477 480
          483 486 489 492 495 498 501 504 507 510
          513 516 519 522 525 528 531 534 537 540
          543 546 549 552 555 558 561 564 567 570
          573 576 579 582 585 588 591 594 597 600
          603 606 609 612 615 618 621 624 627 630
          633 636 639 642 645 648 651 654 657 660
          663 666 669 672 675 678 681 684 687 690
          693 696 699 702 705 708 711 714 717 720
          723 726 729 732 735 738 741 744 747 750
          753 756 759 762 765 768 771 774 777 780
          783 786 789 792 795 798 801 804 807 810
          813 816 819 822
        </DataArray>
        <DataArray type="Int32" Name="types" format="ascii">
          5 5 5 5 5 5 5 5 5 5 5 5 5 5 5 5 5 5 5 5 5 5 5 5 5 5 5 5 5 5
          5 5 5 5 5 5 5 5 5 5 5 5 5 5 5 5 5 5 5 5 5 5 5 5 5 5 5 5 5 5
          5 5 5 5 5 5 5 5 5 5 5 5 5 5 5 5 5 5 5 5 5 5 5 5 5 5 5 5 5 5
          5 5 5 5 5 5 5 5 5 5 5 5 5 5 5 5 5 5 5 5 5 5 5 5 5 5 5 5 5 5
          5 5 5 5 5 5 5 5 5 5 5 5 5 5 5 5 5 5 5 5 5 5 5 5 5 5 5 5 5 5
          5 5 5 5 5 5 5 5 5 5 5 5 5 5 5 5 5 5 5 5 5 5 5 5 5 5 5 5 5 5
          5 5 5 5 5 5 5 5 5 5 5 5 5 5 5 5 5 5 5 5 5 5 5 5 5 5 5 5 5 5
          5 5 5 5 5 5 5 5 5 5 5 5 5 5 5 5 5 5 5 5 5 5 5 5 5 5 5 5 5 5
          5 5 5 5 5 5 5 5 5 5 5 5 5 5 5 5 5 5 5 5 5 5 5 5 5 5 5 5 5 5
          5 5 5 5
        </DataArray>
      </Cells>
    </Piece>
  </UnstructuredGrid>
</VTKFile>